SMILES_Solute,Temperature_K,Solvent,SMILES_Solvent,Solubility(mole_fraction),Solubility(mol/L),LogS(mol/L),Compound_Name,CAS,PubChem_CID,FDA_Approved,Source
COc1cc(/C=C/C(=O)O)cc(OC)c1OC,303.15,ethanol,CCO,0.026060000000000003,0.45355383776190705,-0.34337115390675926,"3,4,5-trimethoxycinnamic acid",90-50-6,735755,No,10.1016/j.jct.2023.107055
COc1cc(/C=C/C(=O)O)cc(OC)c1OC,308.15,ethanol,CCO,0.034089999999999995,0.5947946867096506,-0.2256329196776322,"3,4,5-trimethoxycinnamic acid",90-50-6,735755,No,10.1016/j.jct.2023.107055
COc1cc(/C=C/C(=O)O)cc(OC)c1OC,313.15,ethanol,CCO,0.04403,0.7719811329326214,-0.11239331360646543,"3,4,5-trimethoxycinnamic acid",90-50-6,735755,No,10.1016/j.jct.2023.107055
COc1cc(/C=C/C(=O)O)cc(OC)c1OC,318.15,ethanol,CCO,0.05697000000000001,1.0066423084232243,0.0028751795169219374,"3,4,5-trimethoxycinnamic acid",90-50-6,735755,No,10.1016/j.jct.2023.107055
COc1cc(/C=C/C(=O)O)cc(OC)c1OC,323.15,ethanol,CCO,0.0725,1.2949519819649407,0.11225366466877976,"3,4,5-trimethoxycinnamic acid",90-50-6,735755,No,10.1016/j.jct.2023.107055
O=C1CCC(=O)CC1,278.15,ethanol,CCO,0.0215,0.3828123828551525,-0.41701402251827685,"1,4-cyclohexanedione",637-88-7,12511,No,10.1016/j.jct.2023.107064
O=C1CCC(=O)CC1,283.15,ethanol,CCO,0.0301,0.5372988317162946,-0.26978410374494494,"1,4-cyclohexanedione",637-88-7,12511,No,10.1016/j.jct.2023.107064
O=C1CCC(=O)CC1,288.15,ethanol,CCO,0.0479,0.8663265359606162,-0.062318382767372865,"1,4-cyclohexanedione",637-88-7,12511,No,10.1016/j.jct.2023.107064
O=C1CCC(=O)CC1,293.15,ethanol,CCO,0.0777,1.4438419728994913,0.15951966272575,"1,4-cyclohexanedione",637-88-7,12511,No,10.1016/j.jct.2023.107064
O=C1CCC(=O)CC1,298.15,ethanol,CCO,0.1213,2.3535253178836104,0.3717188745601892,"1,4-cyclohexanedione",637-88-7,12511,No,10.1016/j.jct.2023.107064
O=C1CCC(=O)CC1,303.15,ethanol,CCO,0.1833,3.804403275251729,0.5802865468914433,"1,4-cyclohexanedione",637-88-7,12511,No,10.1016/j.jct.2023.107064
O=C1CCC(=O)CC1,308.15,ethanol,CCO,0.2651,6.079365040779747,0.7838582217586023,"1,4-cyclohexanedione",637-88-7,12511,No,10.1016/j.jct.2023.107064
O=C1CCC(=O)CC1,313.15,ethanol,CCO,0.375,10.056654149210965,1.002453514891986,"1,4-cyclohexanedione",637-88-7,12511,No,10.1016/j.jct.2023.107064
CC(C)[C@@H](C)[C@@H](O)[C@H](O)[C@@H](C)[C@H]1CC[C@H]2[C@@H]3COC(=O)[C@H]4C[C@H](O)[C@H](O)C[C@]4(C)[C@H]3CC[C@]12C,283.15,ethanol,CCO,0.0021891,0.03798338951265274,-1.4204062828596866,"2,4-epibrassinolide",78821-43-9,443055,No,10.1016/j.jct.2023.107066
CC(C)[C@@H](C)[C@@H](O)[C@H](O)[C@@H](C)[C@H]1CC[C@H]2[C@@H]3COC(=O)[C@H]4C[C@H](O)[C@H](O)C[C@]4(C)[C@H]3CC[C@]12C,288.15,ethanol,CCO,0.002405,0.04151351296749448,-1.3818105140836912,"2,4-epibrassinolide",78821-43-9,443055,No,10.1016/j.jct.2023.107066
CC(C)[C@@H](C)[C@@H](O)[C@H](O)[C@@H](C)[C@H]1CC[C@H]2[C@@H]3COC(=O)[C@H]4C[C@H](O)[C@H](O)C[C@]4(C)[C@H]3CC[C@]12C,293.15,ethanol,CCO,0.0029601000000000002,0.05088206132172042,-1.2934353029705923,"2,4-epibrassinolide",78821-43-9,443055,No,10.1016/j.jct.2023.107066
CC(C)[C@@H](C)[C@@H](O)[C@H](O)[C@@H](C)[C@H]1CC[C@H]2[C@@H]3COC(=O)[C@H]4C[C@H](O)[C@H](O)C[C@]4(C)[C@H]3CC[C@]12C,298.15,ethanol,CCO,0.0031971,0.05468215577957562,-1.262154372218361,"2,4-epibrassinolide",78821-43-9,443055,No,10.1016/j.jct.2023.107066
CC(C)[C@@H](C)[C@@H](O)[C@H](O)[C@@H](C)[C@H]1CC[C@H]2[C@@H]3COC(=O)[C@H]4C[C@H](O)[C@H](O)C[C@]4(C)[C@H]3CC[C@]12C,303.15,ethanol,CCO,0.0035612,0.06058043286634562,-1.217667627820699,"2,4-epibrassinolide",78821-43-9,443055,No,10.1016/j.jct.2023.107066
CC(C)[C@@H](C)[C@@H](O)[C@H](O)[C@@H](C)[C@H]1CC[C@H]2[C@@H]3COC(=O)[C@H]4C[C@H](O)[C@H](O)C[C@]4(C)[C@H]3CC[C@]12C,308.15,ethanol,CCO,0.0040945999999999995,0.06928993218640707,-1.159329863707486,"2,4-epibrassinolide",78821-43-9,443055,No,10.1016/j.jct.2023.107066
CC(C)[C@@H](C)[C@@H](O)[C@H](O)[C@@H](C)[C@H]1CC[C@H]2[C@@H]3COC(=O)[C@H]4C[C@H](O)[C@H](O)C[C@]4(C)[C@H]3CC[C@]12C,313.15,ethanol,CCO,0.0047615,0.0801897547362902,-1.0958811148295575,"2,4-epibrassinolide",78821-43-9,443055,No,10.1016/j.jct.2023.107066
CC(C)[C@@H](C)[C@@H](O)[C@H](O)[C@@H](C)[C@H]1CC[C@H]2[C@@H]3COC(=O)[C@H]4C[C@H](O)[C@H](O)C[C@]4(C)[C@H]3CC[C@]12C,318.15,ethanol,CCO,0.0055060000000000005,0.09225470165772619,-1.035011491272168,"2,4-epibrassinolide",78821-43-9,443055,No,10.1016/j.jct.2023.107066
CC(C)[C@@H](C)[C@@H](O)[C@H](O)[C@@H](C)[C@H]1CC[C@H]2[C@@H]3COC(=O)[C@H]4C[C@H](O)[C@H](O)C[C@]4(C)[C@H]3CC[C@]12C,323.15,ethanol,CCO,0.0063441999999999995,0.10577194003289857,-0.975629529892197,"2,4-epibrassinolide",78821-43-9,443055,No,10.1016/j.jct.2023.107066
O=C(O)c1cccnc1,283.15,ethanol,CCO,0.00202,0.035043372213229555,-1.455394108464878,Nicotinic acid,59-67-6,938,Yes,10.1016/j.jct.2023.107084
O=C(O)c1cccnc1,293.15,ethanol,CCO,0.00312,0.05363923354648003,-1.2705174364302918,Nicotinic acid,59-67-6,938,Yes,10.1016/j.jct.2023.107084
O=C(O)c1cccnc1,303.15,ethanol,CCO,0.00468,0.07970209914052459,-1.0985302402959665,Nicotinic acid,59-67-6,938,Yes,10.1016/j.jct.2023.107084
O=C(O)c1cccnc1,313.15,ethanol,CCO,0.00683,0.11526550983066157,-0.9383006244574206,Nicotinic acid,59-67-6,938,Yes,10.1016/j.jct.2023.107084
O=C(O)c1cccnc1,323.15,ethanol,CCO,0.009779999999999999,0.1636201315180378,-0.7861632625882142,Nicotinic acid,59-67-6,938,Yes,10.1016/j.jct.2023.107084
O=C(O)c1cccnc1,333.15,ethanol,CCO,0.0136,0.22577650150888828,-0.6463212607993549,Nicotinic acid,59-67-6,938,Yes,10.1016/j.jct.2023.107084
O=C(O)c1cccnc1,343.15,ethanol,CCO,0.0188,0.3101941705365693,-0.5083663681200585,Nicotinic acid,59-67-6,938,Yes,10.1016/j.jct.2023.107084
CCCCOC(=O)c1ccc(O)cc1,288.15,ethanol,CCO,0.287,6.931401178615025,0.8408210358571351,Butyl paraben,94-26-8,7184,No,10.1016/j.jct.2023.107088
CCCCOC(=O)c1ccc(O)cc1,298.15,ethanol,CCO,0.3611,9.6359225444194,0.983893300389564,Butyl paraben,94-26-8,7184,No,10.1016/j.jct.2023.107088
CCCCOC(=O)c1ccc(O)cc1,308.15,ethanol,CCO,0.4333,12.885824668295967,1.110112217798035,Butyl paraben,94-26-8,7184,No,10.1016/j.jct.2023.107088
CCCCOC(=O)c1ccc(O)cc1,318.15,ethanol,CCO,0.5237,18.32130739344525,1.2629564613350968,Butyl paraben,94-26-8,7184,No,10.1016/j.jct.2023.107088
CCCOC(=O)c1ccc(O)cc1,288.15,ethanol,CCO,0.1543,3.1417980401217758,0.4971782644468919,Propylparaben,94-13-3,7175,No,10.1016/j.jct.2023.107088
CCCOC(=O)c1ccc(O)cc1,298.15,ethanol,CCO,0.1975,4.195857777738106,0.6228207589804468,Propylparaben,94-13-3,7175,No,10.1016/j.jct.2023.107088
CCCOC(=O)c1ccc(O)cc1,308.15,ethanol,CCO,0.2845,6.701150534702913,0.826149374040451,Propylparaben,94-13-3,7175,No,10.1016/j.jct.2023.107088
CCCOC(=O)c1ccc(O)cc1,318.15,ethanol,CCO,0.3622,9.462772520156873,0.9760184000163006,Propylparaben,94-13-3,7175,No,10.1016/j.jct.2023.107088
CCOC(=O)c1ccc(O)cc1,288.15,ethanol,CCO,0.1227,2.4083805008765546,0.3817251023434497,Ethylparaben,120-47-8,8434,No,10.1016/j.jct.2023.107088
CCOC(=O)c1ccc(O)cc1,298.15,ethanol,CCO,0.1633,3.3274774106319898,0.5221151158458331,Ethylparaben,120-47-8,8434,No,10.1016/j.jct.2023.107088
CCOC(=O)c1ccc(O)cc1,308.15,ethanol,CCO,0.2008,4.234332663428151,0.626784974660212,Ethylparaben,120-47-8,8434,No,10.1016/j.jct.2023.107088
CCOC(=O)c1ccc(O)cc1,318.15,ethanol,CCO,0.257,5.763665637362319,0.7606987785159205,Ethylparaben,120-47-8,8434,No,10.1016/j.jct.2023.107088
COC(=O)c1ccc(O)cc1,288.15,ethanol,CCO,0.1108,2.1456998722222167,0.33156897534046637,Methyl paraben,99-76-3,7456,No,10.1016/j.jct.2023.107088
COC(=O)c1ccc(O)cc1,298.15,ethanol,CCO,0.1416,2.812368626443615,0.4490722444907328,Methyl paraben,99-76-3,7456,No,10.1016/j.jct.2023.107088
COC(=O)c1ccc(O)cc1,308.15,ethanol,CCO,0.1833,3.782480090799645,0.5777766507788704,Methyl paraben,99-76-3,7456,No,10.1016/j.jct.2023.107088
COC(=O)c1ccc(O)cc1,318.15,ethanol,CCO,0.2222,4.7602590211745435,0.677630584738609,Methyl paraben,99-76-3,7456,No,10.1016/j.jct.2023.107088
CC1(C)[C@@H](O)CC[C@]2(C)[C@H]3C(=O)C=C4[C@@H]5C[C@@](C)(C(=O)O)CC[C@]5(C)CC[C@@]4(C)[C@]3(C)CC[C@@H]12,278.15,ethanol,CCO,0.01086,0.19128477660575746,-0.7183195919130799,18-glycyrrhetinic acid,471-53-4,10114,No,10.1016/j.jct.2023.107090
CC1(C)[C@@H](O)CC[C@]2(C)[C@H]3C(=O)C=C4[C@@H]5C[C@@](C)(C(=O)O)CC[C@]5(C)CC[C@@]4(C)[C@]3(C)CC[C@@H]12,283.15,ethanol,CCO,0.01148,0.20106329134884282,-0.6966672124458574,18-glycyrrhetinic acid,471-53-4,10114,No,10.1016/j.jct.2023.107090
CC1(C)[C@@H](O)CC[C@]2(C)[C@H]3C(=O)C=C4[C@@H]5C[C@@](C)(C(=O)O)CC[C@]5(C)CC[C@@]4(C)[C@]3(C)CC[C@@H]12,288.15,ethanol,CCO,0.01212,0.21126477707399918,-0.6751729042611136,18-glycyrrhetinic acid,471-53-4,10114,No,10.1016/j.jct.2023.107090
CC1(C)[C@@H](O)CC[C@]2(C)[C@H]3C(=O)C=C4[C@@H]5C[C@@](C)(C(=O)O)CC[C@]5(C)CC[C@@]4(C)[C@]3(C)CC[C@@H]12,293.15,ethanol,CCO,0.01277,0.22168862287757535,-0.6542565944284713,18-glycyrrhetinic acid,471-53-4,10114,No,10.1016/j.jct.2023.107090
CC1(C)[C@@H](O)CC[C@]2(C)[C@H]3C(=O)C=C4[C@@H]5C[C@@](C)(C(=O)O)CC[C@]5(C)CC[C@@]4(C)[C@]3(C)CC[C@@H]12,298.15,ethanol,CCO,0.01341,0.23173453926815854,-0.6350092312266471,18-glycyrrhetinic acid,471-53-4,10114,No,10.1016/j.jct.2023.107090
CC1(C)[C@@H](O)CC[C@]2(C)[C@H]3C(=O)C=C4[C@@H]5C[C@@](C)(C(=O)O)CC[C@]5(C)CC[C@@]4(C)[C@]3(C)CC[C@@H]12,303.15,ethanol,CCO,0.01408,0.24207370414257115,-0.6160523843130241,18-glycyrrhetinic acid,471-53-4,10114,No,10.1016/j.jct.2023.107090
CC1(C)[C@@H](O)CC[C@]2(C)[C@H]3C(=O)C=C4[C@@H]5C[C@@](C)(C(=O)O)CC[C@]5(C)CC[C@@]4(C)[C@]3(C)CC[C@@H]12,308.15,ethanol,CCO,0.01473,0.25195572379623715,-0.5986757711249006,18-glycyrrhetinic acid,471-53-4,10114,No,10.1016/j.jct.2023.107090
CC1(C)[C@@H](O)CC[C@]2(C)[C@H]3C(=O)C=C4[C@@H]5C[C@@](C)(C(=O)O)CC[C@]5(C)CC[C@@]4(C)[C@]3(C)CC[C@@H]12,313.15,ethanol,CCO,0.01553,0.2644059560596841,-0.5777287660747469,18-glycyrrhetinic acid,471-53-4,10114,No,10.1016/j.jct.2023.107090
CC1(C)[C@@H](O)CC[C@]2(C)[C@H]3C(=O)C=C4[C@@H]5C[C@@](C)(C(=O)O)CC[C@]5(C)CC[C@@]4(C)[C@]3(C)CC[C@@H]12,318.15,ethanol,CCO,0.01632,0.2764526656311253,-0.5583792181205888,18-glycyrrhetinic acid,471-53-4,10114,No,10.1016/j.jct.2023.107090
CC1(C)[C@@H](O)CC[C@]2(C)[C@H]3C(=O)C=C4[C@@H]5C[C@@](C)(C(=O)O)CC[C@]5(C)CC[C@@]4(C)[C@]3(C)CC[C@@H]12,323.15,ethanol,CCO,0.01722,0.29027284778439416,-0.5371935863140662,18-glycyrrhetinic acid,471-53-4,10114,No,10.1016/j.jct.2023.107090
Nc1cncc(Cl)n1,278.15,ethanol,CCO,0.001592,0.02778071113701556,-1.5562566412863519,2-amino-6-chloropyrazine,33332-28-4,118458,No,10.1016/j.jct.2023.107109
Nc1cncc(Cl)n1,283.15,ethanol,CCO,0.001899,0.03294024568396991,-1.4822731659800314,2-amino-6-chloropyrazine,33332-28-4,118458,No,10.1016/j.jct.2023.107109
Nc1cncc(Cl)n1,288.15,ethanol,CCO,0.002264,0.039074141861907385,-1.4081105510881924,2-amino-6-chloropyrazine,33332-28-4,118458,No,10.1016/j.jct.2023.107109
Nc1cncc(Cl)n1,293.15,ethanol,CCO,0.002716,0.046674724879151766,-1.3309182332892942,2-amino-6-chloropyrazine,33332-28-4,118458,No,10.1016/j.jct.2023.107109
Nc1cncc(Cl)n1,298.15,ethanol,CCO,0.003226,0.05517805171515695,-1.258233638113708,2-amino-6-chloropyrazine,33332-28-4,118458,No,10.1016/j.jct.2023.107109
Nc1cncc(Cl)n1,303.15,ethanol,CCO,0.003844,0.06540977592841377,-1.184357338610278,2-amino-6-chloropyrazine,33332-28-4,118458,No,10.1016/j.jct.2023.107109
Nc1cncc(Cl)n1,308.15,ethanol,CCO,0.00453,0.07669141785341059,-1.1152532330189944,2-amino-6-chloropyrazine,33332-28-4,118458,No,10.1016/j.jct.2023.107109
Nc1cncc(Cl)n1,313.15,ethanol,CCO,0.0053,0.08930710597972273,-1.0491139838325951,2-amino-6-chloropyrazine,33332-28-4,118458,No,10.1016/j.jct.2023.107109
Nc1cncc(Cl)n1,318.15,ethanol,CCO,0.006242,0.10466406435410604,-0.9802024045830888,2-amino-6-chloropyrazine,33332-28-4,118458,No,10.1016/j.jct.2023.107109
Nc1cncc(Cl)n1,323.15,ethanol,CCO,0.00756,0.12619644237803265,-0.8989528881772042,2-amino-6-chloropyrazine,33332-28-4,118458,No,10.1016/j.jct.2023.107109
CCC(C)n1ncn(-c2ccc(N3CCN(c4ccc(OCC5COC(Cn6cncn6)(c6ccc(Cl)cc6Cl)O5)cc4)CC3)cc2)c1=O,288.15,ethanol,CCO,1.0700000000000001e-05,0.00018425407162926997,-3.734582906363964,Itraconazole,84625-61-6,3793,Yes,10.1016/j.jct.2023.107115
CCC(C)n1ncn(-c2ccc(N3CCN(c4ccc(OCC5COC(Cn6cncn6)(c6ccc(Cl)cc6Cl)O5)cc4)CC3)cc2)c1=O,293.15,ethanol,CCO,1.4299999999999999e-05,0.00024508295073451426,-3.6106868995168315,Itraconazole,84625-61-6,3793,Yes,10.1016/j.jct.2023.107115
CCC(C)n1ncn(-c2ccc(N3CCN(c4ccc(OCC5COC(Cn6cncn6)(c6ccc(Cl)cc6Cl)O5)cc4)CC3)cc2)c1=O,298.15,ethanol,CCO,1.89e-05,0.0003222320338785962,-3.491831287488602,Itraconazole,84625-61-6,3793,Yes,10.1016/j.jct.2023.107115
CCC(C)n1ncn(-c2ccc(N3CCN(c4ccc(OCC5COC(Cn6cncn6)(c6ccc(Cl)cc6Cl)O5)cc4)CC3)cc2)c1=O,303.15,ethanol,CCO,2.44e-05,0.0004136062195395655,-3.3834129392289003,Itraconazole,84625-61-6,3793,Yes,10.1016/j.jct.2023.107115
CCC(C)n1ncn(-c2ccc(N3CCN(c4ccc(OCC5COC(Cn6cncn6)(c6ccc(Cl)cc6Cl)O5)cc4)CC3)cc2)c1=O,308.15,ethanol,CCO,3.18e-05,0.0005359418513903888,-3.270882327826294,Itraconazole,84625-61-6,3793,Yes,10.1016/j.jct.2023.107115
O=S(=O)(c1ccccc1)c1ccc(Cl)cc1,278.15,ethanol,CCO,0.0009101000000000001,0.015870583460765326,-1.7994071066961355,Sulfenone,80-00-2,6621,No,10.1016/j.jct.2023.107153
O=S(=O)(c1ccccc1)c1ccc(Cl)cc1,283.15,ethanol,CCO,0.001054,0.018267325131893077,-1.7383250413451317,Sulfenone,80-00-2,6621,No,10.1016/j.jct.2023.107153
O=S(=O)(c1ccccc1)c1ccc(Cl)cc1,288.15,ethanol,CCO,0.001209,0.02084396568477837,-1.6810196504795458,Sulfenone,80-00-2,6621,No,10.1016/j.jct.2023.107153
O=S(=O)(c1ccccc1)c1ccc(Cl)cc1,293.15,ethanol,CCO,0.00142,0.024371167434583174,-1.613123666619388,Sulfenone,80-00-2,6621,No,10.1016/j.jct.2023.107153
O=S(=O)(c1ccccc1)c1ccc(Cl)cc1,298.15,ethanol,CCO,0.0016630000000000002,0.02839970195099627,-1.5466862177598948,Sulfenone,80-00-2,6621,No,10.1016/j.jct.2023.107153
O=S(=O)(c1ccccc1)c1ccc(Cl)cc1,303.15,ethanol,CCO,0.0018909999999999999,0.032114428268811494,-1.4932998052989703,Sulfenone,80-00-2,6621,No,10.1016/j.jct.2023.107153
O=S(=O)(c1ccccc1)c1ccc(Cl)cc1,308.15,ethanol,CCO,0.002213,0.03737836615690416,-1.4273796859574155,Sulfenone,80-00-2,6621,No,10.1016/j.jct.2023.107153
O=S(=O)(c1ccccc1)c1ccc(Cl)cc1,313.15,ethanol,CCO,0.0026060000000000002,0.04379352711974703,-1.3585900754300313,Sulfenone,80-00-2,6621,No,10.1016/j.jct.2023.107153
O=S(=O)(c1ccccc1)c1ccc(Cl)cc1,318.15,ethanol,CCO,0.0030110000000000002,0.050323965713427614,-1.2982251422131184,Sulfenone,80-00-2,6621,No,10.1016/j.jct.2023.107153
O=S(=O)(c1ccccc1)c1ccc(Cl)cc1,323.15,ethanol,CCO,0.0035830000000000002,0.05957105014031212,-1.2249647439313236,Sulfenone,80-00-2,6621,No,10.1016/j.jct.2023.107153
CCOc1cccc(C=O)c1O,278.15,ethanol,CCO,0.0153,0.2707047276513745,-0.5675041595417378,3-ethoxysalicylaldehyde,492-88-6,68117,No,10.1016/j.jct.2023.107162
CCOc1cccc(C=O)c1O,283.15,ethanol,CCO,0.0195,0.3443208909005292,-0.4630366266488547,3-ethoxysalicylaldehyde,492-88-6,68117,No,10.1016/j.jct.2023.107162
CCOc1cccc(C=O)c1O,288.15,ethanol,CCO,0.0287,0.5088118027748908,-0.29344282302679287,3-ethoxysalicylaldehyde,492-88-6,68117,No,10.1016/j.jct.2023.107162
CCOc1cccc(C=O)c1O,293.15,ethanol,CCO,0.0433,0.7756806807412868,-0.11031702504664531,3-ethoxysalicylaldehyde,492-88-6,68117,No,10.1016/j.jct.2023.107162
CCOc1cccc(C=O)c1O,298.15,ethanol,CCO,0.0662,1.208656299542231,0.08230281993979023,3-ethoxysalicylaldehyde,492-88-6,68117,No,10.1016/j.jct.2023.107162
CCOc1cccc(C=O)c1O,303.15,ethanol,CCO,0.1017,1.9190495604453286,0.28308619075943847,3-ethoxysalicylaldehyde,492-88-6,68117,No,10.1016/j.jct.2023.107162
CCOc1cccc(C=O)c1O,308.15,ethanol,CCO,0.1455,2.8696416539868244,0.45782766767032657,3-ethoxysalicylaldehyde,492-88-6,68117,No,10.1016/j.jct.2023.107162
CCOc1cccc(C=O)c1O,313.15,ethanol,CCO,0.2144,4.574309762370229,0.6603255707501816,3-ethoxysalicylaldehyde,492-88-6,68117,No,10.1016/j.jct.2023.107162
COc1ccc(Cl)cc1C(=O)NCCc1ccc(S(=O)(=O)NC(=O)NC2CCCCC2)cc1,283.15,ethanol,CCO,0.0001034,0.0017903659395710739,-2.7470581928784146,Glyburide,10238-21-8,3488,Yes,10.1016/j.jct.2023.107195
COc1ccc(Cl)cc1C(=O)NCCc1ccc(S(=O)(=O)NC(=O)NC2CCCCC2)cc1,288.15,ethanol,CCO,0.0001449,0.0024955138715525987,-2.602840011723723,Glyburide,10238-21-8,3488,Yes,10.1016/j.jct.2023.107195
COc1ccc(Cl)cc1C(=O)NCCc1ccc(S(=O)(=O)NC(=O)NC2CCCCC2)cc1,293.15,ethanol,CCO,0.0001962,0.003363218416927538,-2.473244927456055,Glyburide,10238-21-8,3488,Yes,10.1016/j.jct.2023.107195
COc1ccc(Cl)cc1C(=O)NCCc1ccc(S(=O)(=O)NC(=O)NC2CCCCC2)cc1,298.15,ethanol,CCO,0.0002587,0.004411715471290806,-2.355392504670875,Glyburide,10238-21-8,3488,Yes,10.1016/j.jct.2023.107195
COc1ccc(Cl)cc1C(=O)NCCc1ccc(S(=O)(=O)NC(=O)NC2CCCCC2)cc1,303.15,ethanol,CCO,0.0003333,0.005651538957593774,-2.247833274342915,Glyburide,10238-21-8,3488,Yes,10.1016/j.jct.2023.107195
COc1ccc(Cl)cc1C(=O)NCCc1ccc(S(=O)(=O)NC(=O)NC2CCCCC2)cc1,308.15,ethanol,CCO,0.0004373,0.007373032992440795,-2.1323538227355936,Glyburide,10238-21-8,3488,Yes,10.1016/j.jct.2023.107195
COc1ccc(Cl)cc1C(=O)NCCc1ccc(S(=O)(=O)NC(=O)NC2CCCCC2)cc1,313.15,ethanol,CCO,0.0006205,0.010406713865262401,-1.9826863862902018,Glyburide,10238-21-8,3488,Yes,10.1016/j.jct.2023.107195
COc1ccc(Cl)cc1C(=O)NCCc1ccc(S(=O)(=O)NC(=O)NC2CCCCC2)cc1,318.15,ethanol,CCO,0.0008932,0.014896741050966542,-1.82690873147951,Glyburide,10238-21-8,3488,Yes,10.1016/j.jct.2023.107195
COc1ccc(Cl)cc1C(=O)NCCc1ccc(S(=O)(=O)NC(=O)NC2CCCCC2)cc1,323.15,ethanol,CCO,0.001218,0.020202548487034917,-1.6945938422343527,Glyburide,10238-21-8,3488,Yes,10.1016/j.jct.2023.107195
CN(C)NC(=O)CCC(=O)O,283.15,ethanol,CCO,0.0027500000000000003,0.04774248373807018,-1.3210949911591843,Daminozide,1596-84-5,15331,No,10.1016/j.jct.2023.107202
CN(C)NC(=O)CCC(=O)O,288.15,ethanol,CCO,0.0035399999999999997,0.061174729982632944,-1.213427938891765,Daminozide,1596-84-5,15331,No,10.1016/j.jct.2023.107202
CN(C)NC(=O)CCC(=O)O,293.15,ethanol,CCO,0.004371,0.07524092414076204,-1.123545878900916,Daminozide,1596-84-5,15331,No,10.1016/j.jct.2023.107202
CN(C)NC(=O)CCC(=O)O,298.15,ethanol,CCO,0.005515,0.09454661396584994,-1.024354020095293,Daminozide,1596-84-5,15331,No,10.1016/j.jct.2023.107202
CN(C)NC(=O)CCC(=O)O,303.15,ethanol,CCO,0.006905,0.1178581243122127,-0.9286404748931508,Daminozide,1596-84-5,15331,No,10.1016/j.jct.2023.107202
CN(C)NC(=O)CCC(=O)O,308.15,ethanol,CCO,0.008483000000000001,0.1441869793404749,-0.8410739563704063,Daminozide,1596-84-5,15331,No,10.1016/j.jct.2023.107202
CN(C)NC(=O)CCC(=O)O,313.15,ethanol,CCO,0.01016,0.17204060951935568,-0.7643690274616806,Daminozide,1596-84-5,15331,No,10.1016/j.jct.2023.107202
CN(C)NC(=O)CCC(=O)O,318.15,ethanol,CCO,0.012809999999999998,0.21622347924088978,-0.6650971487217107,Daminozide,1596-84-5,15331,No,10.1016/j.jct.2023.107202
CN(C)NC(=O)CCC(=O)O,323.15,ethanol,CCO,0.01638,0.27587739922556664,-0.5592838768809689,Daminozide,1596-84-5,15331,No,10.1016/j.jct.2023.107202
CC(C)(C)C(=O)C(Oc1ccc(Cl)cc1)n1ccnc1,288.15,ethanol,CCO,0.11199999999999999,2.171869496968804,0.33683372586658894,Climbazole,38083-17-9,37907,No,10.1016/j.jct.2023.107206
CC(C)(C)C(=O)C(Oc1ccc(Cl)cc1)n1ccnc1,293.15,ethanol,CCO,0.132,2.6063039281990656,0.41602505859196887,Climbazole,38083-17-9,37907,No,10.1016/j.jct.2023.107206
CC(C)(C)C(=O)C(Oc1ccc(Cl)cc1)n1ccnc1,298.15,ethanol,CCO,0.157,3.1751977480166875,0.5017707778793687,Climbazole,38083-17-9,37907,No,10.1016/j.jct.2023.107206
CC(C)(C)C(=O)C(Oc1ccc(Cl)cc1)n1ccnc1,303.15,ethanol,CCO,0.185,3.8476960472867656,0.5852007571807663,Climbazole,38083-17-9,37907,No,10.1016/j.jct.2023.107206
CC(C)(C)C(=O)C(Oc1ccc(Cl)cc1)n1ccnc1,308.15,ethanol,CCO,0.21100000000000002,4.506944328093742,0.6538821934934286,Climbazole,38083-17-9,37907,No,10.1016/j.jct.2023.107206
CC(C)(C)C(=O)C(Oc1ccc(Cl)cc1)n1ccnc1,313.15,ethanol,CCO,0.25,5.58703008289498,0.74718100978868,Climbazole,38083-17-9,37907,No,10.1016/j.jct.2023.107206
CC(C)(C)C(=O)C(Oc1ccc(Cl)cc1)n1ccnc1,318.15,ethanol,CCO,0.28800000000000003,6.740109669399173,0.8286669630675757,Climbazole,38083-17-9,37907,No,10.1016/j.jct.2023.107206
COc1ccc2cccc(CCNC(C)=O)c2c1,278.15,ethanol,CCO,0.0109,0.1919970887886831,-0.7167053563620539,Agomelatine,138112-76-2,82148,Yes,10.1016/j.jct.2023.107209
COc1ccc2cccc(CCNC(C)=O)c2c1,283.15,ethanol,CCO,0.0169,0.29762223143549965,-0.5263346314959345,Agomelatine,138112-76-2,82148,Yes,10.1016/j.jct.2023.107209