SMILES_Solute,Temperature_K,Solvent,SMILES_Solvent,Solubility(mole_fraction),Solubility(mol/L),LogS(mol/L),Compound_Name,CAS,PubChem_CID,FDA_Approved,Source
O=C1c2cccc(O)c2C(=O)c2c(O)cc(CO)cc21,313.15,ethanol,CCO,6.196e-05,0.0010385815023184026,-2.983559416684719,Aloe-emodin,481-72-1,10207,No,10.1016/j.jct.2016.02.020
O=C1c2cccc(O)c2C(=O)c2c(O)cc(CO)cc21,318.15,ethanol,CCO,7.56e-05,0.0012598217397342293,-2.899690901649623,Aloe-emodin,481-72-1,10207,No,10.1016/j.jct.2016.02.020
N=C(Nc1ccccc1)Nc1ccccc1,273.15,ethanol,CCO,0.0144,0.25593391530943405,-0.5918721593814056,"1,3-diphenylguanidine",102-06-7,7594,No,10.1016/j.jct.2016.03.011
N=C(Nc1ccccc1)Nc1ccccc1,275.65,ethanol,CCO,0.01556,0.27612716644372753,-0.558890863711309,"1,3-diphenylguanidine",102-06-7,7594,No,10.1016/j.jct.2016.03.011
N=C(Nc1ccccc1)Nc1ccccc1,278.15,ethanol,CCO,0.01702,0.30166381681032145,-0.5204767783301426,"1,3-diphenylguanidine",102-06-7,7594,No,10.1016/j.jct.2016.03.011
N=C(Nc1ccccc1)Nc1ccccc1,280.65,ethanol,CCO,0.0184,0.3256926484274408,-0.4871920442703404,"1,3-diphenylguanidine",102-06-7,7594,No,10.1016/j.jct.2016.03.011
N=C(Nc1ccccc1)Nc1ccccc1,283.15,ethanol,CCO,0.01991,0.35170752626024454,-0.4538183380284641,"1,3-diphenylguanidine",102-06-7,7594,No,10.1016/j.jct.2016.03.011
N=C(Nc1ccccc1)Nc1ccccc1,285.65,ethanol,CCO,0.02169,0.3831163522676176,-0.4166693109560178,"1,3-diphenylguanidine",102-06-7,7594,No,10.1016/j.jct.2016.03.011
N=C(Nc1ccccc1)Nc1ccccc1,288.15,ethanol,CCO,0.02347,0.413862587603791,-0.38314383122572065,"1,3-diphenylguanidine",102-06-7,7594,No,10.1016/j.jct.2016.03.011
N=C(Nc1ccccc1)Nc1ccccc1,290.65,ethanol,CCO,0.02532,0.446435931659984,-0.35024085821551765,"1,3-diphenylguanidine",102-06-7,7594,No,10.1016/j.jct.2016.03.011
N=C(Nc1ccccc1)Nc1ccccc1,293.15,ethanol,CCO,0.02732,0.4813728162518947,-0.31751843854195344,"1,3-diphenylguanidine",102-06-7,7594,No,10.1016/j.jct.2016.03.011
N=C(Nc1ccccc1)Nc1ccccc1,295.65,ethanol,CCO,0.02924,0.5147775856822725,-0.2883803712983975,"1,3-diphenylguanidine",102-06-7,7594,No,10.1016/j.jct.2016.03.011
N=C(Nc1ccccc1)Nc1ccccc1,298.15,ethanol,CCO,0.03148,0.5541468009478351,-0.2563751695746764,"1,3-diphenylguanidine",102-06-7,7594,No,10.1016/j.jct.2016.03.011
N=C(Nc1ccccc1)Nc1ccccc1,300.65,ethanol,CCO,0.03373,0.5932738999431275,-0.22674475727523402,"1,3-diphenylguanidine",102-06-7,7594,No,10.1016/j.jct.2016.03.011
N=C(Nc1ccccc1)Nc1ccccc1,303.15,ethanol,CCO,0.03631,0.6386685548691401,-0.1947244659979572,"1,3-diphenylguanidine",102-06-7,7594,No,10.1016/j.jct.2016.03.011
N=C(Nc1ccccc1)Nc1ccccc1,305.65,ethanol,CCO,0.03903,0.6864293735569432,-0.16340414051373955,"1,3-diphenylguanidine",102-06-7,7594,No,10.1016/j.jct.2016.03.011
N=C(Nc1ccccc1)Nc1ccccc1,308.15,ethanol,CCO,0.04191,0.7372046993162713,-0.13241190503106945,"1,3-diphenylguanidine",102-06-7,7594,No,10.1016/j.jct.2016.03.011
N=C(Nc1ccccc1)Nc1ccccc1,310.65,ethanol,CCO,0.04477,0.7876664426964488,-0.10365765657740374,"1,3-diphenylguanidine",102-06-7,7594,No,10.1016/j.jct.2016.03.011
N=C(Nc1ccccc1)Nc1ccccc1,313.15,ethanol,CCO,0.04826,0.8499067133897232,-0.07062874026619927,"1,3-diphenylguanidine",102-06-7,7594,No,10.1016/j.jct.2016.03.011
C#CC(C)(C)NC(=O)c1cc(Cl)cc(Cl)c1,278.15,ethanol,CCO,0.0071,0.12458368874959863,-0.904538814416453,Pronamide,23950-58-5,32154,No,10.1016/j.jct.2016.03.039
C#CC(C)(C)NC(=O)c1cc(Cl)cc(Cl)c1,283.15,ethanol,CCO,0.00834,0.14560611518646335,-0.836820385078154,Pronamide,23950-58-5,32154,No,10.1016/j.jct.2016.03.039
C#CC(C)(C)NC(=O)c1cc(Cl)cc(Cl)c1,288.15,ethanol,CCO,0.00953,0.16568387518613176,-0.7807197562665131,Pronamide,23950-58-5,32154,No,10.1016/j.jct.2016.03.039
C#CC(C)(C)NC(=O)c1cc(Cl)cc(Cl)c1,293.15,ethanol,CCO,0.01104,0.19132036454297682,-0.7182388002919592,Pronamide,23950-58-5,32154,No,10.1016/j.jct.2016.03.039
C#CC(C)(C)NC(=O)c1cc(Cl)cc(Cl)c1,298.15,ethanol,CCO,0.01307,0.22578128328092334,-0.6463120628748431,Pronamide,23950-58-5,32154,No,10.1016/j.jct.2016.03.039
C#CC(C)(C)NC(=O)c1cc(Cl)cc(Cl)c1,303.15,ethanol,CCO,0.01508,0.2595296748500567,-0.5858129773653817,Pronamide,23950-58-5,32154,No,10.1016/j.jct.2016.03.039
C#CC(C)(C)NC(=O)c1cc(Cl)cc(Cl)c1,308.15,ethanol,CCO,0.01742,0.2987837488488574,-0.5246430279316133,Pronamide,23950-58-5,32154,No,10.1016/j.jct.2016.03.039
C#CC(C)(C)NC(=O)c1cc(Cl)cc(Cl)c1,313.15,ethanol,CCO,0.02055,0.35166716484810406,-0.4538681798519339,Pronamide,23950-58-5,32154,No,10.1016/j.jct.2016.03.039
C#CC(C)(C)NC(=O)c1cc(Cl)cc(Cl)c1,318.15,ethanol,CCO,0.02417,0.4127213674835964,-0.38434304616984183,Pronamide,23950-58-5,32154,No,10.1016/j.jct.2016.03.039
C#CC(C)(C)NC(=O)c1cc(Cl)cc(Cl)c1,323.15,ethanol,CCO,0.02948,0.5032138271736698,-0.2982474339723233,Pronamide,23950-58-5,32154,No,10.1016/j.jct.2016.03.039
O=[N+]([O-])c1ccc(O)c2ncccc12,278.15,ethanol,CCO,0.0005747,0.010018419329015305,-1.9992007945205146,5-nitro-8-hydroxyquinoline,4008-48-4,19910,No,10.1016/j.jct.2016.04.018
O=[N+]([O-])c1ccc(O)c2ncccc12,280.65,ethanol,CCO,0.0006246,0.010859204389972649,-1.9642019925834586,5-nitro-8-hydroxyquinoline,4008-48-4,19910,No,10.1016/j.jct.2016.04.018
O=[N+]([O-])c1ccc(O)c2ncccc12,283.15,ethanol,CCO,0.0006816,0.01180869913818713,-1.9277979422022442,5-nitro-8-hydroxyquinoline,4008-48-4,19910,No,10.1016/j.jct.2016.04.018
O=[N+]([O-])c1ccc(O)c2ncccc12,285.65,ethanol,CCO,0.0007499,0.012968112906095165,-1.8871232169842913,5-nitro-8-hydroxyquinoline,4008-48-4,19910,No,10.1016/j.jct.2016.04.018
O=[N+]([O-])c1ccc(O)c2ncccc12,288.15,ethanol,CCO,0.00082,0.014131842511866916,-1.8498012110764415,5-nitro-8-hydroxyquinoline,4008-48-4,19910,No,10.1016/j.jct.2016.04.018
O=[N+]([O-])c1ccc(O)c2ncccc12,290.65,ethanol,CCO,0.0009008,0.015494489119148224,-1.809822738649775,5-nitro-8-hydroxyquinoline,4008-48-4,19910,No,10.1016/j.jct.2016.04.018
O=[N+]([O-])c1ccc(O)c2ncccc12,293.15,ethanol,CCO,0.0009875,0.016940921675729248,-1.7710629654460155,5-nitro-8-hydroxyquinoline,4008-48-4,19910,No,10.1016/j.jct.2016.04.018
O=[N+]([O-])c1ccc(O)c2ncccc12,295.65,ethanol,CCO,0.001077,0.01842628668859693,-1.7345621760742382,5-nitro-8-hydroxyquinoline,4008-48-4,19910,No,10.1016/j.jct.2016.04.018
O=[N+]([O-])c1ccc(O)c2ncccc12,298.15,ethanol,CCO,0.00118,0.0201415773023768,-1.6959065225164691,5-nitro-8-hydroxyquinoline,4008-48-4,19910,No,10.1016/j.jct.2016.04.018
O=[N+]([O-])c1ccc(O)c2ncccc12,300.65,ethanol,CCO,0.00128,0.021782294240912353,-1.6618963796906931,5-nitro-8-hydroxyquinoline,4008-48-4,19910,No,10.1016/j.jct.2016.04.018
O=[N+]([O-])c1ccc(O)c2ncccc12,303.15,ethanol,CCO,0.001394,0.023662206501175974,-1.6259447598516117,5-nitro-8-hydroxyquinoline,4008-48-4,19910,No,10.1016/j.jct.2016.04.018
O=[N+]([O-])c1ccc(O)c2ncccc12,305.65,ethanol,CCO,0.001518,0.02569441116951042,-1.5901613304505955,5-nitro-8-hydroxyquinoline,4008-48-4,19910,No,10.1016/j.jct.2016.04.018
O=[N+]([O-])c1ccc(O)c2ncccc12,308.15,ethanol,CCO,0.001656,0.027954830393340055,-1.5535431383350153,5-nitro-8-hydroxyquinoline,4008-48-4,19910,No,10.1016/j.jct.2016.04.018
O=[N+]([O-])c1ccc(O)c2ncccc12,310.65,ethanol,CCO,0.001817,0.030592006345071997,-1.514392039327194,5-nitro-8-hydroxyquinoline,4008-48-4,19910,No,10.1016/j.jct.2016.04.018
O=[N+]([O-])c1ccc(O)c2ncccc12,313.15,ethanol,CCO,0.00199,0.033421077539186016,-1.4759795519956356,5-nitro-8-hydroxyquinoline,4008-48-4,19910,No,10.1016/j.jct.2016.04.018
COc1c(O)cc2c(c1O)[C@@H]1O[C@H](CO)[C@@H](O)[C@H](O)[C@H]1OC2=O,298.15,ethanol,CCO,0.00469,0.08033654963051319,-1.0950868246905707,Bergenin,477-90-7,66065,No,10.1016/j.jct.2016.05.003
COc1c(O)cc2c(c1O)[C@@H]1O[C@H](CO)[C@@H](O)[C@H](O)[C@H]1OC2=O,303.15,ethanol,CCO,0.00537,0.09151649294958734,-1.0385006310535119,Bergenin,477-90-7,66065,No,10.1016/j.jct.2016.05.003
COc1c(O)cc2c(c1O)[C@@H]1O[C@H](CO)[C@@H](O)[C@H](O)[C@H]1OC2=O,308.15,ethanol,CCO,0.00612,0.10377535130248154,-0.9839057877642252,Bergenin,477-90-7,66065,No,10.1016/j.jct.2016.05.003
COc1c(O)cc2c(c1O)[C@@H]1O[C@H](CO)[C@@H](O)[C@H](O)[C@H]1OC2=O,313.15,ethanol,CCO,0.00687,0.11594523376442718,-0.9357470994826866,Bergenin,477-90-7,66065,No,10.1016/j.jct.2016.05.003
COc1c(O)cc2c(c1O)[C@@H]1O[C@H](CO)[C@@H](O)[C@H](O)[C@H]1OC2=O,318.15,ethanol,CCO,0.00777,0.13048576438033552,-0.8844368660138096,Bergenin,477-90-7,66065,No,10.1016/j.jct.2016.05.003
COC(=O)N(OC)c1ccccc1COc1ccn(-c2ccc(Cl)cc2)n1,283.15,ethanol,CCO,0.004581,0.07967658758576245,-1.0986692742882798,Pyraclostrobin,175013-18-0,6422843,No,10.1016/j.jct.2016.05.005
COC(=O)N(OC)c1ccccc1COc1ccn(-c2ccc(Cl)cc2)n1,288.15,ethanol,CCO,0.006009,0.10409944661820707,-0.9825515791474643,Pyraclostrobin,175013-18-0,6422843,No,10.1016/j.jct.2016.05.005
COC(=O)N(OC)c1ccccc1COc1ccn(-c2ccc(Cl)cc2)n1,293.15,ethanol,CCO,0.008662,0.14975015413374548,-0.8246327219309669,Pyraclostrobin,175013-18-0,6422843,No,10.1016/j.jct.2016.05.005
COC(=O)N(OC)c1ccccc1COc1ccn(-c2ccc(Cl)cc2)n1,298.15,ethanol,CCO,0.01171,0.20200922113541397,-0.6946288058166209,Pyraclostrobin,175013-18-0,6422843,No,10.1016/j.jct.2016.05.005
COC(=O)N(OC)c1ccccc1COc1ccn(-c2ccc(Cl)cc2)n1,303.15,ethanol,CCO,0.01841,0.3179144738302292,-0.4976896993217549,Pyraclostrobin,175013-18-0,6422843,No,10.1016/j.jct.2016.05.005
COC(=O)N(OC)c1ccccc1COc1ccn(-c2ccc(Cl)cc2)n1,308.15,ethanol,CCO,0.03257,0.5673812101294832,-0.246125050761178,Pyraclostrobin,175013-18-0,6422843,No,10.1016/j.jct.2016.05.005
Cc1cccc([N+](=O)[O-])c1N,278.15,ethanol,CCO,0.0102,0.1795399375754755,-0.745838930153082,2-methyl-6-nitroaniline,570-24-1,11298,No,10.1016/j.jct.2016.05.027
Cc1cccc([N+](=O)[O-])c1N,280.65,ethanol,CCO,0.01125,0.19769273438048857,-0.7040092916192807,2-methyl-6-nitroaniline,570-24-1,11298,No,10.1016/j.jct.2016.05.027
Cc1cccc([N+](=O)[O-])c1N,283.15,ethanol,CCO,0.01249,0.2189763922034587,-0.6596027038284685,2-methyl-6-nitroaniline,570-24-1,11298,No,10.1016/j.jct.2016.05.027
Cc1cccc([N+](=O)[O-])c1N,285.65,ethanol,CCO,0.01387,0.24304680691129546,-0.6143100802052132,2-methyl-6-nitroaniline,570-24-1,11298,No,10.1016/j.jct.2016.05.027
Cc1cccc([N+](=O)[O-])c1N,288.15,ethanol,CCO,0.01538,0.2689777468780707,-0.5702836486512236,2-methyl-6-nitroaniline,570-24-1,11298,No,10.1016/j.jct.2016.05.027
Cc1cccc([N+](=O)[O-])c1N,290.65,ethanol,CCO,0.01702,0.2975585057711239,-0.5264276308246079,2-methyl-6-nitroaniline,570-24-1,11298,No,10.1016/j.jct.2016.05.027
Cc1cccc([N+](=O)[O-])c1N,293.15,ethanol,CCO,0.01898,0.33158066579176915,-0.47941080075368664,2-methyl-6-nitroaniline,570-24-1,11298,No,10.1016/j.jct.2016.05.027
Cc1cccc([N+](=O)[O-])c1N,295.65,ethanol,CCO,0.02099,0.3664202309529211,-0.43602055588666727,2-methyl-6-nitroaniline,570-24-1,11298,No,10.1016/j.jct.2016.05.027
Cc1cccc([N+](=O)[O-])c1N,298.15,ethanol,CCO,0.02327,0.40618189013582784,-0.39127944378056845,2-methyl-6-nitroaniline,570-24-1,11298,No,10.1016/j.jct.2016.05.027
Cc1cccc([N+](=O)[O-])c1N,300.65,ethanol,CCO,0.02562,0.44687716372186326,-0.34981183805162036,2-methyl-6-nitroaniline,570-24-1,11298,No,10.1016/j.jct.2016.05.027
Cc1cccc([N+](=O)[O-])c1N,303.15,ethanol,CCO,0.02845,0.49636797329664856,-0.30419624786075544,2-methyl-6-nitroaniline,570-24-1,11298,No,10.1016/j.jct.2016.05.027
Cc1cccc([N+](=O)[O-])c1N,305.65,ethanol,CCO,0.03135,0.5469880021429949,-0.2620221995536575,2-methyl-6-nitroaniline,570-24-1,11298,No,10.1016/j.jct.2016.05.027
Cc1cccc([N+](=O)[O-])c1N,308.15,ethanol,CCO,0.03463,0.6045544669860801,-0.21856456552961184,2-methyl-6-nitroaniline,570-24-1,11298,No,10.1016/j.jct.2016.05.027
Cc1cccc([N+](=O)[O-])c1N,310.65,ethanol,CCO,0.03811,0.6658505173815744,-0.17662325846175378,2-methyl-6-nitroaniline,570-24-1,11298,No,10.1016/j.jct.2016.05.027
Cc1cccc([N+](=O)[O-])c1N,313.15,ethanol,CCO,0.04202,0.7351938581700467,-0.13359812971497984,2-methyl-6-nitroaniline,570-24-1,11298,No,10.1016/j.jct.2016.05.027
O=S(=O)(c1ccc(O)cc1)c1ccccc1O,278.15,ethanol,CCO,0.06546,1.2203557557824383,0.08648645383118475,"2,4-dihydroxydiphenyl sulfone",5397-34-2,79381,No,10.1016/j.jct.2016.07.001
O=S(=O)(c1ccc(O)cc1)c1ccccc1O,280.65,ethanol,CCO,0.06723,1.2523139660638738,0.09771322395035374,"2,4-dihydroxydiphenyl sulfone",5397-34-2,79381,No,10.1016/j.jct.2016.07.001
O=S(=O)(c1ccc(O)cc1)c1ccccc1O,283.15,ethanol,CCO,0.06886,1.2803490832432007,0.10732839484869632,"2,4-dihydroxydiphenyl sulfone",5397-34-2,79381,No,10.1016/j.jct.2016.07.001
O=S(=O)(c1ccc(O)cc1)c1ccccc1O,285.65,ethanol,CCO,0.07057,1.3120520398610072,0.11795106078374568,"2,4-dihydroxydiphenyl sulfone",5397-34-2,79381,No,10.1016/j.jct.2016.07.001
O=S(=O)(c1ccc(O)cc1)c1ccccc1O,288.15,ethanol,CCO,0.07247,1.3454233633899826,0.12885896497250754,"2,4-dihydroxydiphenyl sulfone",5397-34-2,79381,No,10.1016/j.jct.2016.07.001
O=S(=O)(c1ccc(O)cc1)c1ccccc1O,290.65,ethanol,CCO,0.07455,1.3843700119601454,0.14125218309443255,"2,4-dihydroxydiphenyl sulfone",5397-34-2,79381,No,10.1016/j.jct.2016.07.001
O=S(=O)(c1ccc(O)cc1)c1ccccc1O,293.15,ethanol,CCO,0.07655,1.4207009208777215,0.15250266196459814,"2,4-dihydroxydiphenyl sulfone",5397-34-2,79381,No,10.1016/j.jct.2016.07.001
O=S(=O)(c1ccc(O)cc1)c1ccccc1O,295.65,ethanol,CCO,0.07848,1.4554871063096413,0.16300836251727077,"2,4-dihydroxydiphenyl sulfone",5397-34-2,79381,No,10.1016/j.jct.2016.07.001
O=S(=O)(c1ccc(O)cc1)c1ccccc1O,298.15,ethanol,CCO,0.08049,1.492396324489488,0.17388417077893675,"2,4-dihydroxydiphenyl sulfone",5397-34-2,79381,No,10.1016/j.jct.2016.07.001
O=S(=O)(c1ccc(O)cc1)c1ccccc1O,300.65,ethanol,CCO,0.08267,1.531650716956034,0.18515973853845344,"2,4-dihydroxydiphenyl sulfone",5397-34-2,79381,No,10.1016/j.jct.2016.07.001
O=S(=O)(c1ccc(O)cc1)c1ccccc1O,303.15,ethanol,CCO,0.08499,1.5744491048421878,0.19712862632953645,"2,4-dihydroxydiphenyl sulfone",5397-34-2,79381,No,10.1016/j.jct.2016.07.001
O=S(=O)(c1ccc(O)cc1)c1ccccc1O,305.65,ethanol,CCO,0.08724,1.6153483607801662,0.20826619530482096,"2,4-dihydroxydiphenyl sulfone",5397-34-2,79381,No,10.1016/j.jct.2016.07.001
O=S(=O)(c1ccc(O)cc1)c1ccccc1O,308.15,ethanol,CCO,0.08984,1.6635227308919491,0.22102873958025193,"2,4-dihydroxydiphenyl sulfone",5397-34-2,79381,No,10.1016/j.jct.2016.07.001
O=S(=O)(c1ccc(O)cc1)c1ccccc1O,310.65,ethanol,CCO,0.09283,1.7197403186290057,0.23546287324428172,"2,4-dihydroxydiphenyl sulfone",5397-34-2,79381,No,10.1016/j.jct.2016.07.001
O=S(=O)(c1ccc(O)cc1)c1ccccc1O,313.15,ethanol,CCO,0.09569,1.7735828708038859,0.248851485727048,"2,4-dihydroxydiphenyl sulfone",5397-34-2,79381,No,10.1016/j.jct.2016.07.001
Nc1ccc([N+](=O)[O-])cc1[N+](=O)[O-],278.15,ethanol,CCO,0.001263,0.022032336640983023,-1.6569394412754064,"2,4-dinitroaniline",97-02-9,7321,No,10.1016/j.jct.2016.07.009
Nc1ccc([N+](=O)[O-])cc1[N+](=O)[O-],280.65,ethanol,CCO,0.001399,0.0243416716764596,-1.6136495996913212,"2,4-dinitroaniline",97-02-9,7321,No,10.1016/j.jct.2016.07.009
Nc1ccc([N+](=O)[O-])cc1[N+](=O)[O-],283.15,ethanol,CCO,0.0015429999999999999,0.026755490672551643,-1.572587080031622,"2,4-dinitroaniline",97-02-9,7321,No,10.1016/j.jct.2016.07.009
Nc1ccc([N+](=O)[O-])cc1[N+](=O)[O-],285.65,ethanol,CCO,0.001734,0.030015835960696558,-1.5226495567538203,"2,4-dinitroaniline",97-02-9,7321,No,10.1016/j.jct.2016.07.009
Nc1ccc([N+](=O)[O-])cc1[N+](=O)[O-],288.15,ethanol,CCO,0.001926,0.03322937780157246,-1.47847779052609,"2,4-dinitroaniline",97-02-9,7321,No,10.1016/j.jct.2016.07.009
Nc1ccc([N+](=O)[O-])cc1[N+](=O)[O-],290.65,ethanol,CCO,0.002109,0.036320428958946736,-1.43984903092729,"2,4-dinitroaniline",97-02-9,7321,No,10.1016/j.jct.2016.07.009
Nc1ccc([N+](=O)[O-])cc1[N+](=O)[O-],293.15,ethanol,CCO,0.002318,0.03981916487593087,-1.3999078526355362,"2,4-dinitroaniline",97-02-9,7321,No,10.1016/j.jct.2016.07.009
Nc1ccc([N+](=O)[O-])cc1[N+](=O)[O-],295.65,ethanol,CCO,0.002539,0.043503170581786606,-1.36147908980409,"2,4-dinitroaniline",97-02-9,7321,No,10.1016/j.jct.2016.07.009
Nc1ccc([N+](=O)[O-])cc1[N+](=O)[O-],298.15,ethanol,CCO,0.002782,0.04756261418495672,-1.3227342832606561,"2,4-dinitroaniline",97-02-9,7321,No,10.1016/j.jct.2016.07.009
Nc1ccc([N+](=O)[O-])cc1[N+](=O)[O-],300.65,ethanol,CCO,0.0030380000000000003,0.05179007763336167,-1.2857534379738937,"2,4-dinitroaniline",97-02-9,7321,No,10.1016/j.jct.2016.07.009
Nc1ccc([N+](=O)[O-])cc1[N+](=O)[O-],303.15,ethanol,CCO,0.0033079999999999997,0.056258890883507856,-1.2498088339895232,"2,4-dinitroaniline",97-02-9,7321,No,10.1016/j.jct.2016.07.009
Nc1ccc([N+](=O)[O-])cc1[N+](=O)[O-],305.65,ethanol,CCO,0.0035859999999999998,0.06082436762719346,-1.2159223976038522,"2,4-dinitroaniline",97-02-9,7321,No,10.1016/j.jct.2016.07.009
Nc1ccc([N+](=O)[O-])cc1[N+](=O)[O-],308.15,ethanol,CCO,0.003914,0.06622176116288525,-1.1789992734004415,"2,4-dinitroaniline",97-02-9,7321,No,10.1016/j.jct.2016.07.009
Nc1ccc([N+](=O)[O-])cc1[N+](=O)[O-],310.65,ethanol,CCO,0.004275,0.07215391664102416,-1.1417400896651844,"2,4-dinitroaniline",97-02-9,7321,No,10.1016/j.jct.2016.07.009
Nc1ccc([N+](=O)[O-])cc1[N+](=O)[O-],313.15,ethanol,CCO,0.004678,0.07877689851459944,-1.1036011215785402,"2,4-dinitroaniline",97-02-9,7321,No,10.1016/j.jct.2016.07.009
Nc1ccc([N+](=O)[O-])cc1[N+](=O)[O-],315.65,ethanol,CCO,0.00511,0.08583240285353715,-1.0663487293552452,"2,4-dinitroaniline",97-02-9,7321,No,10.1016/j.jct.2016.07.009
Nc1ccc([N+](=O)[O-])cc1[N+](=O)[O-],318.15,ethanol,CCO,0.005548999999999999,0.09297919995385351,-1.0316141950546476,"2,4-dinitroaniline",97-02-9,7321,No,10.1016/j.jct.2016.07.009
O=Cc1ccc(C=O)cc1,273.15,ethanol,CCO,0.006909,0.12186870323260005,-0.9141078100378746,Terephthaldialdehyde,623-27-8,12173,No,10.1016/j.jct.2016.07.013
O=Cc1ccc(C=O)cc1,278.15,ethanol,CCO,0.008639,0.15182384703841234,-0.8186600082574762,Terephthaldialdehyde,623-27-8,12173,No,10.1016/j.jct.2016.07.013
O=Cc1ccc(C=O)cc1,283.15,ethanol,CCO,0.01068,0.18690065520677285,-0.7283891761375554,Terephthaldialdehyde,623-27-8,12173,No,10.1016/j.jct.2016.07.013
O=Cc1ccc(C=O)cc1,288.15,ethanol,CCO,0.01352,0.23600275666229018,-0.6270829241645162,Terephthaldialdehyde,623-27-8,12173,No,10.1016/j.jct.2016.07.013
O=Cc1ccc(C=O)cc1,293.15,ethanol,CCO,0.01673,0.29160435430119136,-0.5352059953236751,Terephthaldialdehyde,623-27-8,12173,No,10.1016/j.jct.2016.07.013
O=Cc1ccc(C=O)cc1,298.15,ethanol,CCO,0.02011,0.3498915426080578,-0.4560665549250453,Terephthaldialdehyde,623-27-8,12173,No,10.1016/j.jct.2016.07.013
O=Cc1ccc(C=O)cc1,303.15,ethanol,CCO,0.02467,0.4287500702412299,-0.36779579579960797,Terephthaldialdehyde,623-27-8,12173,No,10.1016/j.jct.2016.07.013
O=Cc1ccc(C=O)cc1,308.15,ethanol,CCO,0.02954,0.5129908192828502,-0.2898904071503195,Terephthaldialdehyde,623-27-8,12173,No,10.1016/j.jct.2016.07.013
O=Cc1ccc(C=O)cc1,313.15,ethanol,CCO,0.03566,0.619802640425685,-0.20774657795174983,Terephthaldialdehyde,623-27-8,12173,No,10.1016/j.jct.2016.07.013
O=Cc1ccc(C=O)cc1,318.15,ethanol,CCO,0.04265,0.7423398295233038,-0.12939723717312335,Terephthaldialdehyde,623-27-8,12173,No,10.1016/j.jct.2016.07.013
Cc1cc(C(=O)O)ccc1[N+](=O)[O-],283.15,ethanol,CCO,0.007513,0.13105841818792952,-0.8825350780737555,3-methyl-4-nitrobenzoic acid,3113-71-1,18370,No,10.1016/j.jct.2016.07.023
Cc1cc(C(=O)O)ccc1[N+](=O)[O-],285.65,ethanol,CCO,0.0078,0.1358447972088272,-0.8669569901998336,3-methyl-4-nitrobenzoic acid,3113-71-1,18370,No,10.1016/j.jct.2016.07.023
Cc1cc(C(=O)O)ccc1[N+](=O)[O-],288.15,ethanol,CCO,0.008183,0.14207238535797184,-0.8474903277875697,3-methyl-4-nitrobenzoic acid,3113-71-1,18370,No,10.1016/j.jct.2016.07.023
Cc1cc(C(=O)O)ccc1[N+](=O)[O-],290.65,ethanol,CCO,0.008659,0.15010742209299763,-0.8235978334439946,3-methyl-4-nitrobenzoic acid,3113-71-1,18370,No,10.1016/j.jct.2016.07.023
Cc1cc(C(=O)O)ccc1[N+](=O)[O-],293.15,ethanol,CCO,0.009155,0.15835197305262252,-0.800376520984661,3-methyl-4-nitrobenzoic acid,3113-71-1,18370,No,10.1016/j.jct.2016.07.023
Cc1cc(C(=O)O)ccc1[N+](=O)[O-],295.65,ethanol,CCO,0.009641,0.16637327423728465,-0.7789164363594112,3-methyl-4-nitrobenzoic acid,3113-71-1,18370,No,10.1016/j.jct.2016.07.023
Cc1cc(C(=O)O)ccc1[N+](=O)[O-],298.15,ethanol,CCO,0.01021,0.17586579533155858,-0.7548186195718327,3-methyl-4-nitrobenzoic acid,3113-71-1,18370,No,10.1016/j.jct.2016.07.023
Cc1cc(C(=O)O)ccc1[N+](=O)[O-],300.65,ethanol,CCO,0.01076,0.18486215021292834,-0.7331519998000172,3-methyl-4-nitrobenzoic acid,3113-71-1,18370,No,10.1016/j.jct.2016.07.023