SMILES_Solute,Temperature_K,Solvent,SMILES_Solvent,Solubility(mole_fraction),Solubility(mol/L),LogS(mol/L),Compound_Name,CAS,PubChem_CID,FDA_Approved,Source
COc1cc(-c2cc(-c3ccc(F)cc3)[nH]c(=O)c2C#N)ccc1O,308.15,ethanol,CCO,0.000848,0.014303457557062114,-1.8445589683776926,"6-(4-fluorophenyl)-4-(4-hydroxy-3-methoxyphenyl)-2-oxo-1,2-dihydropyridine-3-carbonitrile",,19656498,No,10.1016/j.molliq.2016.08.074
COc1cc(-c2cc(-c3ccc(F)cc3)[nH]c(=O)c2C#N)ccc1O,313.15,ethanol,CCO,0.0008972,0.015051554425750915,-1.8224186466703962,"6-(4-fluorophenyl)-4-(4-hydroxy-3-methoxyphenyl)-2-oxo-1,2-dihydropyridine-3-carbonitrile",,19656498,No,10.1016/j.molliq.2016.08.074
COc1cc(-c2cc(-c3ccc(F)cc3)[nH]c(=O)c2C#N)ccc1O,318.15,ethanol,CCO,0.0009463000000000001,0.0157831788008094,-1.801805523520875,"6-(4-fluorophenyl)-4-(4-hydroxy-3-methoxyphenyl)-2-oxo-1,2-dihydropyridine-3-carbonitrile",,19656498,No,10.1016/j.molliq.2016.08.074
COc1cc(-c2cc(-c3ccc(F)cc3)[nH]c(=O)c2C#N)ccc1O,323.15,ethanol,CCO,0.0009996,0.016576397851253127,-1.78050983827835,"6-(4-fluorophenyl)-4-(4-hydroxy-3-methoxyphenyl)-2-oxo-1,2-dihydropyridine-3-carbonitrile",,19656498,No,10.1016/j.molliq.2016.08.074
COc1cc(-c2cc(-c3ccc(F)cc3)[nH]c(=O)c2C#N)ccc1O,328.15,ethanol,CCO,0.001063,0.017522627073536867,-1.7564007818431626,"6-(4-fluorophenyl)-4-(4-hydroxy-3-methoxyphenyl)-2-oxo-1,2-dihydropyridine-3-carbonitrile",,19656498,No,10.1016/j.molliq.2016.08.074
COc1cc(-c2cc(-c3ccc(O)cc3)[nH]c(=O)c2C#N)ccc1O,298.15,ethanol,CCO,0.0007446,0.012704138743715123,-1.8960547718989653,"4-(4-hydroxy-3-methoxyphenyl)-6-(4-hydroxyphenyl)-2-oxo-1,2-dihydropyridine-3 -carbonitrile",,,No,10.1016/j.molliq.2016.08.074
COc1cc(-c2cc(-c3ccc(O)cc3)[nH]c(=O)c2C#N)ccc1O,303.15,ethanol,CCO,0.0007861,0.013335397540651476,-1.8749940330571333,"4-(4-hydroxy-3-methoxyphenyl)-6-(4-hydroxyphenyl)-2-oxo-1,2-dihydropyridine-3 -carbonitrile",,,No,10.1016/j.molliq.2016.08.074
COc1cc(-c2cc(-c3ccc(O)cc3)[nH]c(=O)c2C#N)ccc1O,308.15,ethanol,CCO,0.0008275,0.013957391848159962,-1.8551957286883023,"4-(4-hydroxy-3-methoxyphenyl)-6-(4-hydroxyphenyl)-2-oxo-1,2-dihydropyridine-3 -carbonitrile",,,No,10.1016/j.molliq.2016.08.074
COc1cc(-c2cc(-c3ccc(O)cc3)[nH]c(=O)c2C#N)ccc1O,313.15,ethanol,CCO,0.0008757,0.014690551246499964,-1.832961907489432,"4-(4-hydroxy-3-methoxyphenyl)-6-(4-hydroxyphenyl)-2-oxo-1,2-dihydropyridine-3 -carbonitrile",,,No,10.1016/j.molliq.2016.08.074
COc1cc(-c2cc(-c3ccc(O)cc3)[nH]c(=O)c2C#N)ccc1O,318.15,ethanol,CCO,0.0009220000000000001,0.015377509153760809,-1.8131140057819175,"4-(4-hydroxy-3-methoxyphenyl)-6-(4-hydroxyphenyl)-2-oxo-1,2-dihydropyridine-3 -carbonitrile",,,No,10.1016/j.molliq.2016.08.074
COc1cc(-c2cc(-c3ccc(O)cc3)[nH]c(=O)c2C#N)ccc1O,323.15,ethanol,CCO,0.0009756,0.01617801644482473,-1.7910747274626333,"4-(4-hydroxy-3-methoxyphenyl)-6-(4-hydroxyphenyl)-2-oxo-1,2-dihydropyridine-3 -carbonitrile",,,No,10.1016/j.molliq.2016.08.074
COc1cc(-c2cc(-c3ccc(O)cc3)[nH]c(=O)c2C#N)ccc1O,328.15,ethanol,CCO,0.0010294000000000002,0.016968189666176935,-1.7703644900293491,"4-(4-hydroxy-3-methoxyphenyl)-6-(4-hydroxyphenyl)-2-oxo-1,2-dihydropyridine-3 -carbonitrile",,,No,10.1016/j.molliq.2016.08.074
COc1ccc(-c2cc(-c3ccc(O)c(OC)c3)c(C#N)c(=O)[nH]2)cc1,298.15,ethanol,CCO,0.0006898999999999999,0.011770219668936278,-1.9292154317940653,"4-(4-hydroxy-3-methoxyphenyl)-6-(4-methoxyphenyl)-2-oxo-1,2-dihydropyridine-3-carbonitrile",,19656499,No,10.1016/j.molliq.2016.08.074
COc1ccc(-c2cc(-c3ccc(O)c(OC)c3)c(C#N)c(=O)[nH]2)cc1,303.15,ethanol,CCO,0.0007241999999999999,0.012284565152990477,-1.910640211996203,"4-(4-hydroxy-3-methoxyphenyl)-6-(4-methoxyphenyl)-2-oxo-1,2-dihydropyridine-3-carbonitrile",,19656499,No,10.1016/j.molliq.2016.08.074
COc1ccc(-c2cc(-c3ccc(O)c(OC)c3)c(C#N)c(=O)[nH]2)cc1,308.15,ethanol,CCO,0.0007586,0.012794377502893691,-1.8929808394082839,"4-(4-hydroxy-3-methoxyphenyl)-6-(4-methoxyphenyl)-2-oxo-1,2-dihydropyridine-3-carbonitrile",,19656499,No,10.1016/j.molliq.2016.08.074
COc1ccc(-c2cc(-c3ccc(O)c(OC)c3)c(C#N)c(=O)[nH]2)cc1,313.15,ethanol,CCO,0.0008023,0.013458220236615767,-1.871012368977041,"4-(4-hydroxy-3-methoxyphenyl)-6-(4-methoxyphenyl)-2-oxo-1,2-dihydropyridine-3-carbonitrile",,19656499,No,10.1016/j.molliq.2016.08.074
COc1ccc(-c2cc(-c3ccc(O)c(OC)c3)c(C#N)c(=O)[nH]2)cc1,318.15,ethanol,CCO,0.0008460999999999999,0.014110544610233578,-1.8504562239030025,"4-(4-hydroxy-3-methoxyphenyl)-6-(4-methoxyphenyl)-2-oxo-1,2-dihydropyridine-3-carbonitrile",,19656499,No,10.1016/j.molliq.2016.08.074
COc1ccc(-c2cc(-c3ccc(O)c(OC)c3)c(C#N)c(=O)[nH]2)cc1,323.15,ethanol,CCO,0.0008993,0.014911622703275588,-1.8264750934529705,"4-(4-hydroxy-3-methoxyphenyl)-6-(4-methoxyphenyl)-2-oxo-1,2-dihydropyridine-3-carbonitrile",,19656499,No,10.1016/j.molliq.2016.08.074
COc1ccc(-c2cc(-c3ccc(O)c(OC)c3)c(C#N)c(=O)[nH]2)cc1,328.15,ethanol,CCO,0.0009525,0.015699394403378253,-1.8041170999693463,"4-(4-hydroxy-3-methoxyphenyl)-6-(4-methoxyphenyl)-2-oxo-1,2-dihydropyridine-3-carbonitrile",,19656499,No,10.1016/j.molliq.2016.08.074
CCOc1ccc(C2NC(=O)NC=C2C(=O)c2cc(OC)c(OC)c(OC)c2)cc1,298.15,ethanol,CCO,0.000294,0.0050138776485888865,-2.2998262681422674,"4-(4-ethoxyphenyl)-5-(3,4,5 trimethoxybenzoyl)-3,4-dihydropyrimidine-2(1H)-one (DHP-5)",,91864611,No,10.1016/j.molliq.2016.10.047
CCOc1ccc(C2NC(=O)NC=C2C(=O)c2cc(OC)c(OC)c(OC)c2)cc1,303.15,ethanol,CCO,0.00040199999999999996,0.0068169061042136925,-2.166412687914806,"4-(4-ethoxyphenyl)-5-(3,4,5 trimethoxybenzoyl)-3,4-dihydropyrimidine-2(1H)-one (DHP-5)",,91864611,No,10.1016/j.molliq.2016.10.047
CCOc1ccc(C2NC(=O)NC=C2C(=O)c2cc(OC)c(OC)c(OC)c2)cc1,308.15,ethanol,CCO,0.000516,0.008700627925103364,-2.060449403178318,"4-(4-ethoxyphenyl)-5-(3,4,5 trimethoxybenzoyl)-3,4-dihydropyrimidine-2(1H)-one (DHP-5)",,91864611,No,10.1016/j.molliq.2016.10.047
CCOc1ccc(C2NC(=O)NC=C2C(=O)c2cc(OC)c(OC)c(OC)c2)cc1,313.15,ethanol,CCO,0.000654,0.010968926700702212,-1.9598358656583619,"4-(4-ethoxyphenyl)-5-(3,4,5 trimethoxybenzoyl)-3,4-dihydropyrimidine-2(1H)-one (DHP-5)",,91864611,No,10.1016/j.molliq.2016.10.047
CCOc1ccc(C2NC(=O)NC=C2C(=O)c2cc(OC)c(OC)c(OC)c2)cc1,318.15,ethanol,CCO,0.000802,0.013374491563966917,-1.8737227188514531,"4-(4-ethoxyphenyl)-5-(3,4,5 trimethoxybenzoyl)-3,4-dihydropyrimidine-2(1H)-one (DHP-5)",,91864611,No,10.1016/j.molliq.2016.10.047
O=C(O)/C=C/c1ccc(O)c(O)c1,293.15,ethanol,CCO,0.0166,0.28930020184020416,-0.5386512633514767,Caffeic acid,331-39-5,689043,No,10.1016/j.molliq.2016.10.110
O=C(O)/C=C/c1ccc(O)c(O)c1,298.15,ethanol,CCO,0.01843,0.32011259266292924,-0.4946972411434268,Caffeic acid,331-39-5,689043,No,10.1016/j.molliq.2016.10.110
O=C(O)/C=C/c1ccc(O)c(O)c1,303.15,ethanol,CCO,0.020720000000000002,0.35864890041289105,-0.4453304963365486,Caffeic acid,331-39-5,689043,No,10.1016/j.molliq.2016.10.110
O=C(O)/C=C/c1ccc(O)c(O)c1,308.15,ethanol,CCO,0.02307,0.39797967186964284,-0.4001391103893962,Caffeic acid,331-39-5,689043,No,10.1016/j.molliq.2016.10.110
O=C(O)/C=C/c1ccc(O)c(O)c1,313.15,ethanol,CCO,0.02577,0.4433586480693583,-0.3532448158511632,Caffeic acid,331-39-5,689043,No,10.1016/j.molliq.2016.10.110
O=C(O)/C=C/c1ccc(O)c(O)c1,318.15,ethanol,CCO,0.02903,0.4981907882935096,-0.3026043069686885,Caffeic acid,331-39-5,689043,No,10.1016/j.molliq.2016.10.110
O=C(O)/C=C/c1ccc(O)c(O)c1,323.15,ethanol,CCO,0.032240000000000005,0.5518956129890404,-0.25814305812213306,Caffeic acid,331-39-5,689043,No,10.1016/j.molliq.2016.10.110
O=C(O)/C=C/c1ccc(O)c(O)c1,328.15,ethanol,CCO,0.03545,0.6051953008545704,-0.21810445279170093,Caffeic acid,331-39-5,689043,No,10.1016/j.molliq.2016.10.110
O=C(O)/C=C/c1ccc(O)c(O)c1,333.15,ethanol,CCO,0.03897,0.6640279427689468,-0.17781364482622017,Caffeic acid,331-39-5,689043,No,10.1016/j.molliq.2016.10.110
CCCc1nn(C)c2c(=O)[nH]c(-c3cc(S(=O)(=O)N4CCN(C)CC4)ccc3OCC)nc12.O=C(O)CC(O)(CC(=O)O)C(=O)O,293.2,ethanol,CCO,0.00011599999999999999,0.0019881164229288966,-2.7015581871644994,Sildenafil citrate,171599-83-0,135413523,Yes,10.1016/j.molliq.2016.11.055
CCCc1nn(C)c2c(=O)[nH]c(-c3cc(S(=O)(=O)N4CCN(C)CC4)ccc3OCC)nc12.O=C(O)CC(O)(CC(=O)O)C(=O)O,298.2,ethanol,CCO,0.00011899999999999999,0.0020282520524921724,-2.6928780758650492,Sildenafil citrate,171599-83-0,135413523,Yes,10.1016/j.molliq.2016.11.055
CCCc1nn(C)c2c(=O)[nH]c(-c3cc(S(=O)(=O)N4CCN(C)CC4)ccc3OCC)nc12.O=C(O)CC(O)(CC(=O)O)C(=O)O,303.2,ethanol,CCO,0.00015900000000000002,0.0026950439207306487,-2.5694341527868776,Sildenafil citrate,171599-83-0,135413523,Yes,10.1016/j.molliq.2016.11.055
CCCc1nn(C)c2c(=O)[nH]c(-c3cc(S(=O)(=O)N4CCN(C)CC4)ccc3OCC)nc12.O=C(O)CC(O)(CC(=O)O)C(=O)O,308.2,ethanol,CCO,0.00017900000000000001,0.0030171244625722296,-2.520406773917355,Sildenafil citrate,171599-83-0,135413523,Yes,10.1016/j.molliq.2016.11.055
CCCc1nn(C)c2c(=O)[nH]c(-c3cc(S(=O)(=O)N4CCN(C)CC4)ccc3OCC)nc12.O=C(O)CC(O)(CC(=O)O)C(=O)O,313.2,ethanol,CCO,0.000251,0.004207210316509573,-2.376005777258849,Sildenafil citrate,171599-83-0,135413523,Yes,10.1016/j.molliq.2016.11.055
C=C1CC[C@H](O)C/C1=C/C=C1\CCC[C@]2(C)[C@@H]([C@H](C)CCCC(C)C)CC[C@@H]12,273.2,ethanol,CCO,0.136,2.757196353951667,0.44046769552223664,Vitamin D3,67-97-0,5280795,Yes,10.1016/j.molliq.2016.12.105
C=C1CC[C@H](O)C/C1=C/C=C1\CCC[C@]2(C)[C@@H]([C@H](C)CCCC(C)C)CC[C@@H]12,278.2,ethanol,CCO,0.144,2.9307139616313487,0.4669734332637137,Vitamin D3,67-97-0,5280795,Yes,10.1016/j.molliq.2016.12.105
C=C1CC[C@H](O)C/C1=C/C=C1\CCC[C@]2(C)[C@@H]([C@H](C)CCCC(C)C)CC[C@@H]12,283.2,ethanol,CCO,0.153,3.129839244588432,0.4955220318016945,Vitamin D3,67-97-0,5280795,Yes,10.1016/j.molliq.2016.12.105
C=C1CC[C@H](O)C/C1=C/C=C1\CCC[C@]2(C)[C@@H]([C@H](C)CCCC(C)C)CC[C@@H]12,288.2,ethanol,CCO,0.162,3.331204547250013,0.5226013006631273,Vitamin D3,67-97-0,5280795,Yes,10.1016/j.molliq.2016.12.105
C=C1CC[C@H](O)C/C1=C/C=C1\CCC[C@]2(C)[C@@H]([C@H](C)CCCC(C)C)CC[C@@H]12,298.2,ethanol,CCO,0.177,3.6651918296265245,0.5640967097733444,Vitamin D3,67-97-0,5280795,Yes,10.1016/j.molliq.2016.12.105
Cc1cnc(N)s1,278.15,ethanol,CCO,0.04863000000000001,0.8905599589631589,-0.05033683535826143,2-amino-5-methylthiazole,7305-71-7,351770,No,10.1016/j.molliq.2017.02.084
Cc1cnc(N)s1,280.65,ethanol,CCO,0.05285,0.9695069137821625,-0.013449089517987485,2-amino-5-methylthiazole,7305-71-7,351770,No,10.1016/j.molliq.2017.02.084
Cc1cnc(N)s1,283.15,ethanol,CCO,0.057409999999999996,1.054486633029979,0.02304107887103488,2-amino-5-methylthiazole,7305-71-7,351770,No,10.1016/j.molliq.2017.02.084
Cc1cnc(N)s1,285.65,ethanol,CCO,0.06286,1.1590909933984923,0.06411753120057131,2-amino-5-methylthiazole,7305-71-7,351770,No,10.1016/j.molliq.2017.02.084
Cc1cnc(N)s1,288.15,ethanol,CCO,0.06773,1.2510308964981314,0.09726803552311938,2-amino-5-methylthiazole,7305-71-7,351770,No,10.1016/j.molliq.2017.02.084
Cc1cnc(N)s1,290.65,ethanol,CCO,0.07357,1.3647265513241178,0.13504564101204872,2-amino-5-methylthiazole,7305-71-7,351770,No,10.1016/j.molliq.2017.02.084
Cc1cnc(N)s1,293.15,ethanol,CCO,0.07993,1.4888803400290178,0.17285979529862106,2-amino-5-methylthiazole,7305-71-7,351770,No,10.1016/j.molliq.2017.02.084
Cc1cnc(N)s1,295.65,ethanol,CCO,0.08685999999999999,1.625685720402683,0.21103659101989558,2-amino-5-methylthiazole,7305-71-7,351770,No,10.1016/j.molliq.2017.02.084
Cc1cnc(N)s1,298.15,ethanol,CCO,0.09497,1.7890486995776758,0.25262216262997345,2-amino-5-methylthiazole,7305-71-7,351770,No,10.1016/j.molliq.2017.02.084
Cc1cnc(N)s1,300.65,ethanol,CCO,0.10279999999999999,1.9473375906991832,0.2894412473950039,2-amino-5-methylthiazole,7305-71-7,351770,No,10.1016/j.molliq.2017.02.084
Cc1cnc(N)s1,303.15,ethanol,CCO,0.1119,2.1357718297396633,0.32955485398479556,2-amino-5-methylthiazole,7305-71-7,351770,No,10.1016/j.molliq.2017.02.084
Cc1cnc(N)s1,305.65,ethanol,CCO,0.1219,2.346209919191609,0.37036686654678314,2-amino-5-methylthiazole,7305-71-7,351770,No,10.1016/j.molliq.2017.02.084
Cc1cnc(N)s1,308.15,ethanol,CCO,0.133,2.585290110569064,0.41250928489603156,2-amino-5-methylthiazole,7305-71-7,351770,No,10.1016/j.molliq.2017.02.084
Cc1cnc(N)s1,310.65,ethanol,CCO,0.14429999999999998,2.8340532207665494,0.45240800161652606,2-amino-5-methylthiazole,7305-71-7,351770,No,10.1016/j.molliq.2017.02.084
Cc1cnc(N)s1,313.15,ethanol,CCO,0.15689999999999998,3.1192208041972096,0.4940461187937783,2-amino-5-methylthiazole,7305-71-7,351770,No,10.1016/j.molliq.2017.02.084
O=c1cc(-c2ccc(O)cc2)oc2cc(O)cc(O)c12,298.2,ethanol,CCO,0.00025,0.004261592058724609,-2.370428125509714,Apigenin,520-36-5,5280443,No,10.1016/j.molliq.2017.03.057
O=c1cc(-c2ccc(O)cc2)oc2cc(O)cc(O)c12,303.2,ethanol,CCO,0.000314,0.005323113208155141,-2.2738342974653682,Apigenin,520-36-5,5280443,No,10.1016/j.molliq.2017.03.057
O=c1cc(-c2ccc(O)cc2)oc2cc(O)cc(O)c12,308.2,ethanol,CCO,0.00035800000000000003,0.006035329442527282,-2.219299018662455,Apigenin,520-36-5,5280443,No,10.1016/j.molliq.2017.03.057
O=c1cc(-c2ccc(O)cc2)oc2cc(O)cc(O)c12,313.2,ethanol,CCO,0.000426,0.007141774406505839,-2.14619387236741,Apigenin,520-36-5,5280443,No,10.1016/j.molliq.2017.03.057
O=c1cc(-c2ccc(O)cc2)oc2cc(O)cc(O)c12,318.2,ethanol,CCO,0.00048600000000000005,0.00810203260953547,-2.0914060131750407,Apigenin,520-36-5,5280443,No,10.1016/j.molliq.2017.03.057
C1OCOCO1,288.15,ethanol,CCO,0.1356,2.7013048622145543,0.4315736002948492,"1,3,5-trioxane",110-88-3,8081,No,10.1016/j.molliq.2017.03.108
C1OCOCO1,293.15,ethanol,CCO,0.1749,3.6329052815679863,0.5602540749261318,"1,3,5-trioxane",110-88-3,8081,No,10.1016/j.molliq.2017.03.108
C1OCOCO1,298.15,ethanol,CCO,0.2279,5.032334173320355,0.7017694728208054,"1,3,5-trioxane",110-88-3,8081,No,10.1016/j.molliq.2017.03.108
C1OCOCO1,303.15,ethanol,CCO,0.2901,6.926872441143831,0.8405371901462326,"1,3,5-trioxane",110-88-3,8081,No,10.1016/j.molliq.2017.03.108
C1OCOCO1,308.15,ethanol,CCO,0.3621,9.56649092964968,0.9807526640717074,"1,3,5-trioxane",110-88-3,8081,No,10.1016/j.molliq.2017.03.108
C1OCOCO1,313.15,ethanol,CCO,0.4568,14.095114185565686,1.1490685984736888,"1,3,5-trioxane",110-88-3,8081,No,10.1016/j.molliq.2017.03.108
C1OCOCO1,318.15,ethanol,CCO,0.5912,24.097833934880025,1.381978007205314,"1,3,5-trioxane",110-88-3,8081,No,10.1016/j.molliq.2017.03.108
C1OCOCO1,323.15,ethanol,CCO,0.7401,47.17519468325824,1.6737137010932555,"1,3,5-trioxane",110-88-3,8081,No,10.1016/j.molliq.2017.03.108
C1OCOCO1,328.15,ethanol,CCO,0.9132,173.24081999621288,2.2386502306973086,"1,3,5-trioxane",110-88-3,8081,No,10.1016/j.molliq.2017.03.108
COc1cc(/C=C/C(=O)O)ccc1O,298.2,ethanol,CCO,0.0241,0.4208574342580562,-0.3758649968028402,Ferulic acid,1135-24-6,445858,No,10.1016/j.molliq.2017.04.014
COc1cc(/C=C/C(=O)O)ccc1O,303.2,ethanol,CCO,0.0254,0.44167922709900787,-0.3548930258455708,Ferulic acid,1135-24-6,445858,No,10.1016/j.molliq.2017.04.014
COc1cc(/C=C/C(=O)O)ccc1O,308.2,ethanol,CCO,0.027000000000000003,0.4676418536629935,-0.33008662667731836,Ferulic acid,1135-24-6,445858,No,10.1016/j.molliq.2017.04.014
COc1cc(/C=C/C(=O)O)ccc1O,313.2,ethanol,CCO,0.0288,0.49693008867962973,-0.30370470630957935,Ferulic acid,1135-24-6,445858,No,10.1016/j.molliq.2017.04.014
COc1cc(/C=C/C(=O)O)ccc1O,318.2,ethanol,CCO,0.0308,0.529521880223575,-0.2761160898264971,Ferulic acid,1135-24-6,445858,No,10.1016/j.molliq.2017.04.014
Cc1ccc(-c2ccccc2C#N)cc1,268.05,ethanol,CCO,0.014199999999999999,0.25372152304470913,-0.5956426902750169,2-cyano-4-methylbiphenyl,114772-53-1,145512,No,10.1016/j.molliq.2017.04.049
Cc1ccc(-c2ccccc2C#N)cc1,272.97,ethanol,CCO,0.0159,0.28307960092634704,-0.548091425316347,2-cyano-4-methylbiphenyl,114772-53-1,145512,No,10.1016/j.molliq.2017.04.049
Cc1ccc(-c2ccccc2C#N)cc1,278.05,ethanol,CCO,0.0168,0.29773030270733125,-0.5261769610239617,2-cyano-4-methylbiphenyl,114772-53-1,145512,No,10.1016/j.molliq.2017.04.049
Cc1ccc(-c2ccccc2C#N)cc1,283.15,ethanol,CCO,0.020499999999999997,0.36234792671945976,-0.44087421928257076,2-cyano-4-methylbiphenyl,114772-53-1,145512,No,10.1016/j.molliq.2017.04.049
Cc1ccc(-c2ccccc2C#N)cc1,288.15,ethanol,CCO,0.028399999999999998,0.5033377493857303,-0.2981404971110469,2-cyano-4-methylbiphenyl,114772-53-1,145512,No,10.1016/j.molliq.2017.04.049
Cc1ccc(-c2ccccc2C#N)cc1,293.15,ethanol,CCO,0.040999999999999995,0.7327167203585517,-0.13506389788831724,2-cyano-4-methylbiphenyl,114772-53-1,145512,No,10.1016/j.molliq.2017.04.049
Cc1ccc(-c2ccccc2C#N)cc1,298.13,ethanol,CCO,0.0604,1.095597528591795,0.03965104391766988,2-cyano-4-methylbiphenyl,114772-53-1,145512,No,10.1016/j.molliq.2017.04.049
Cc1ccc(-c2ccccc2C#N)cc1,303.05,ethanol,CCO,0.0958,1.795864545311252,0.25427357651705207,2-cyano-4-methylbiphenyl,114772-53-1,145512,No,10.1016/j.molliq.2017.04.049
COc1cccc(CCc2ccccc2OCC(CN(C)C)OC(=O)CCC(=O)O)c1.Cl,288.15,ethanol,CCO,0.0016799999999999999,0.0289779847139439,-1.5379318210058708,Sarpogrelate hydrochloride,135159-51-2,444005,No,10.1016/j.molliq.2017.04.075
COc1cccc(CCc2ccccc2OCC(CN(C)C)OC(=O)CCC(=O)O)c1.Cl,293.15,ethanol,CCO,0.00211,0.036238535418961465,-1.4408293626595827,Sarpogrelate hydrochloride,135159-51-2,444005,No,10.1016/j.molliq.2017.04.075
COc1cccc(CCc2ccccc2OCC(CN(C)C)OC(=O)CCC(=O)O)c1.Cl,298.15,ethanol,CCO,0.00278,0.04752832575443189,-1.3230474840098536,Sarpogrelate hydrochloride,135159-51-2,444005,No,10.1016/j.molliq.2017.04.075
COc1cccc(CCc2ccccc2OCC(CN(C)C)OC(=O)CCC(=O)O)c1.Cl,303.15,ethanol,CCO,0.0034500000000000004,0.05868223403693316,-1.2314933608914025,Sarpogrelate hydrochloride,135159-51-2,444005,No,10.1016/j.molliq.2017.04.075
COc1cccc(CCc2ccccc2OCC(CN(C)C)OC(=O)CCC(=O)O)c1.Cl,308.15,ethanol,CCO,0.0047599999999999995,0.08060386585341477,-1.0936441284363014,Sarpogrelate hydrochloride,135159-51-2,444005,No,10.1016/j.molliq.2017.04.075
CCOC(=O)CCC(=O)O[C@H]1[C@H](O[C@@H]2[C@@H](C)[C@H](O[C@H]3C[C@@](C)(OC)[C@@H](O)[C@H](C)O3)[C@@H](C)C(=O)O[C@H](CC)[C@@](C)(O)[C@H](O)[C@@H](C)C(=O)[C@H](C)C[C@@]2(C)O)O[C@H](C)C[C@@H]1N(C)C,288.15,ethanol,CCO,0.007624,0.13229252449120724,-0.8784646959783652,Erythromycin ethylsuccinate,1264-62-6,443953,Yes,10.1016/j.molliq.2017.04.081
CCOC(=O)CCC(=O)O[C@H]1[C@H](O[C@@H]2[C@@H](C)[C@H](O[C@H]3C[C@@](C)(OC)[C@@H](O)[C@H](C)O3)[C@@H](C)C(=O)O[C@H](CC)[C@@](C)(O)[C@H](O)[C@@H](C)C(=O)[C@H](C)C[C@@]2(C)O)O[C@H](C)C[C@@H]1N(C)C,293.15,ethanol,CCO,0.009658,0.1671370974956312,-0.7769271440653168,Erythromycin ethylsuccinate,1264-62-6,443953,Yes,10.1016/j.molliq.2017.04.081
CCOC(=O)CCC(=O)O[C@H]1[C@H](O[C@@H]2[C@@H](C)[C@H](O[C@H]3C[C@@](C)(OC)[C@@H](O)[C@H](C)O3)[C@@H](C)C(=O)O[C@H](CC)[C@@](C)(O)[C@H](O)[C@@H](C)C(=O)[C@H](C)C[C@@]2(C)O)O[C@H](C)C[C@@H]1N(C)C,298.15,ethanol,CCO,0.01276,0.22035688836777756,-0.6568733688737983,Erythromycin ethylsuccinate,1264-62-6,443953,Yes,10.1016/j.molliq.2017.04.081
CCOC(=O)CCC(=O)O[C@H]1[C@H](O[C@@H]2[C@@H](C)[C@H](O[C@H]3C[C@@](C)(OC)[C@@H](O)[C@H](C)O3)[C@@H](C)C(=O)O[C@H](CC)[C@@](C)(O)[C@H](O)[C@@H](C)C(=O)[C@H](C)C[C@@]2(C)O)O[C@H](C)C[C@@H]1N(C)C,303.15,ethanol,CCO,0.01705,0.2940218418581961,-0.5316204061655744,Erythromycin ethylsuccinate,1264-62-6,443953,Yes,10.1016/j.molliq.2017.04.081
CCOC(=O)CCC(=O)O[C@H]1[C@H](O[C@@H]2[C@@H](C)[C@H](O[C@H]3C[C@@](C)(OC)[C@@H](O)[C@H](C)O3)[C@@H](C)C(=O)O[C@H](CC)[C@@](C)(O)[C@H](O)[C@@H](C)C(=O)[C@H](C)C[C@@]2(C)O)O[C@H](C)C[C@@H]1N(C)C,308.15,ethanol,CCO,0.024220000000000002,0.4183106944666827,-0.3785010321717107,Erythromycin ethylsuccinate,1264-62-6,443953,Yes,10.1016/j.molliq.2017.04.081
CCOC(=O)CCC(=O)O[C@H]1[C@H](O[C@@H]2[C@@H](C)[C@H](O[C@H]3C[C@@](C)(OC)[C@@H](O)[C@H](C)O3)[C@@H](C)C(=O)O[C@H](CC)[C@@](C)(O)[C@H](O)[C@@H](C)C(=O)[C@H](C)C[C@@]2(C)O)O[C@H](C)C[C@@H]1N(C)C,313.15,ethanol,CCO,0.03231,0.5596325537465618,-0.2520970305967773,Erythromycin ethylsuccinate,1264-62-6,443953,Yes,10.1016/j.molliq.2017.04.081
CCOC(=O)CCC(=O)O[C@H]1[C@H](O[C@@H]2[C@@H](C)[C@H](O[C@H]3C[C@@](C)(OC)[C@@H](O)[C@H](C)O3)[C@@H](C)C(=O)O[C@H](CC)[C@@](C)(O)[C@H](O)[C@@H](C)C(=O)[C@H](C)C[C@@]2(C)O)O[C@H](C)C[C@@H]1N(C)C,318.15,ethanol,CCO,0.041420000000000005,0.7200061399581711,-0.1426638000429217,Erythromycin ethylsuccinate,1264-62-6,443953,Yes,10.1016/j.molliq.2017.04.081