SMILES_Solute,Temperature_K,Solvent,SMILES_Solvent,Solubility(mole_fraction),Solubility(mol/L),LogS(mol/L),Compound_Name,CAS,PubChem_CID,FDA_Approved,Source
CCOC(=O)CCC(=O)O[C@H]1[C@H](O[C@@H]2[C@@H](C)[C@H](O[C@H]3C[C@@](C)(OC)[C@@H](O)[C@H](C)O3)[C@@H](C)C(=O)O[C@H](CC)[C@@](C)(O)[C@H](O)[C@@H](C)C(=O)[C@H](C)C[C@@]2(C)O)O[C@H](C)C[C@@H]1N(C)C,323.15,ethanol,CCO,0.0518,0.9050225181289352,-0.04334061485283531,Erythromycin ethylsuccinate,1264-62-6,443953,Yes,10.1016/j.molliq.2017.04.081
O=Cc1ccc(O)cc1,278.15,ethanol,CCO,0.04303,0.7833960371687035,-0.10601862967367465,4-hydroxybenzaldehyde,123-08-0,126,No,10.1016/j.molliq.2017.04.082
O=Cc1ccc(O)cc1,280.65,ethanol,CCO,0.04931,0.9011991205511314,-0.04517924076087557,4-hydroxybenzaldehyde,123-08-0,126,No,10.1016/j.molliq.2017.04.082
O=Cc1ccc(O)cc1,283.15,ethanol,CCO,0.05627,1.032299017978513,0.01380551419837054,4-hydroxybenzaldehyde,123-08-0,126,No,10.1016/j.molliq.2017.04.082
O=Cc1ccc(O)cc1,285.65,ethanol,CCO,0.06391,1.1797740560636891,0.07179884154302443,4-hydroxybenzaldehyde,123-08-0,126,No,10.1016/j.molliq.2017.04.082
O=Cc1ccc(O)cc1,288.15,ethanol,CCO,0.07249,1.3458236878242988,0.1289881680451117,4-hydroxybenzaldehyde,123-08-0,126,No,10.1016/j.molliq.2017.04.082
O=Cc1ccc(O)cc1,290.65,ethanol,CCO,0.08152,1.5252883814425247,0.18335196212793714,4-hydroxybenzaldehyde,123-08-0,126,No,10.1016/j.molliq.2017.04.082
O=Cc1ccc(O)cc1,293.15,ethanol,CCO,0.09144999999999999,1.7250660559277966,0.23680572965606358,4-hydroxybenzaldehyde,123-08-0,126,No,10.1016/j.molliq.2017.04.082
O=Cc1ccc(O)cc1,295.65,ethanol,CCO,0.1024,1.9497155083215107,0.2899712461421214,4-hydroxybenzaldehyde,123-08-0,126,No,10.1016/j.molliq.2017.04.082
O=Cc1ccc(O)cc1,298.15,ethanol,CCO,0.11460000000000001,2.2067025663369,0.34374380008341937,4-hydroxybenzaldehyde,123-08-0,126,No,10.1016/j.molliq.2017.04.082
O=Cc1ccc(O)cc1,300.65,ethanol,CCO,0.1278,2.4903028702271315,0.39625216913165084,4-hydroxybenzaldehyde,123-08-0,126,No,10.1016/j.molliq.2017.04.082
O=Cc1ccc(O)cc1,303.15,ethanol,CCO,0.1419,2.8030518482041935,0.44763113100349833,4-hydroxybenzaldehyde,123-08-0,126,No,10.1016/j.molliq.2017.04.082
O=Cc1ccc(O)cc1,305.65,ethanol,CCO,0.1561,3.1262165239066904,0.4950190542594098,4-hydroxybenzaldehyde,123-08-0,126,No,10.1016/j.molliq.2017.04.082
O=Cc1ccc(O)cc1,308.15,ethanol,CCO,0.1732,3.530402005372077,0.5478241611312333,4-hydroxybenzaldehyde,123-08-0,126,No,10.1016/j.molliq.2017.04.082
O=Cc1ccc(O)cc1,310.65,ethanol,CCO,0.1907,3.9600836081881705,0.5977043551657785,4-hydroxybenzaldehyde,123-08-0,126,No,10.1016/j.molliq.2017.04.082
O=Cc1ccc(O)cc1,313.15,ethanol,CCO,0.20920000000000002,4.434016287335472,0.6467972840619445,4-hydroxybenzaldehyde,123-08-0,126,No,10.1016/j.molliq.2017.04.082
O=Cc1ccc(O)cc1,315.65,ethanol,CCO,0.22690000000000002,4.904607509575883,0.6906042587607001,4-hydroxybenzaldehyde,123-08-0,126,No,10.1016/j.molliq.2017.04.082
O=Cc1ccc(O)cc1,318.15,ethanol,CCO,0.2466,5.454085293269454,0.7367219253376653,4-hydroxybenzaldehyde,123-08-0,126,No,10.1016/j.molliq.2017.04.082
FC(F)(F)c1cccnc1Cl,273.15,ethanol,CCO,0.1366,2.7714350068284967,0.44270469836896,2-chloro-3-(trifluoromethyl)pyridine,65753-47-1,589833,No,10.1016/j.molliq.2017.04.083
FC(F)(F)c1cccnc1Cl,278.15,ethanol,CCO,0.1818,3.8711745261692307,0.5878427512837314,2-chloro-3-(trifluoromethyl)pyridine,65753-47-1,589833,No,10.1016/j.molliq.2017.04.083
FC(F)(F)c1cccnc1Cl,283.15,ethanol,CCO,0.253,5.8637612523650935,0.7681762793528494,2-chloro-3-(trifluoromethyl)pyridine,65753-47-1,589833,No,10.1016/j.molliq.2017.04.083
FC(F)(F)c1cccnc1Cl,288.15,ethanol,CCO,0.3553,9.489999865087285,0.9772662062532307,2-chloro-3-(trifluoromethyl)pyridine,65753-47-1,589833,No,10.1016/j.molliq.2017.04.083
FC(F)(F)c1cccnc1Cl,293.15,ethanol,CCO,0.4753,15.52485678886316,1.1910276026590305,2-chloro-3-(trifluoromethyl)pyridine,65753-47-1,589833,No,10.1016/j.molliq.2017.04.083
FC(F)(F)c1cccnc1Cl,298.15,ethanol,CCO,0.635,29.6605746532078,1.4721795609303783,2-chloro-3-(trifluoromethyl)pyridine,65753-47-1,589833,No,10.1016/j.molliq.2017.04.083
FC(F)(F)c1cccnc1Cl,303.15,ethanol,CCO,0.8747,118.32995328132758,2.0730946930489527,2-chloro-3-(trifluoromethyl)pyridine,65753-47-1,589833,No,10.1016/j.molliq.2017.04.083
O=S(=O)([O-])c1ccc2ccccc2c1.[Na+],278.15,ethanol,CCO,0.0002467,0.004299170318391187,-2.3666153492834923,Sodium 2-naphthalenesulfonate,532-02-5,23661868,No,10.1016/j.molliq.2017.04.112
O=S(=O)([O-])c1ccc2ccccc2c1.[Na+],283.15,ethanol,CCO,0.0003001,0.005197239215680599,-2.284227293248502,Sodium 2-naphthalenesulfonate,532-02-5,23661868,No,10.1016/j.molliq.2017.04.112
O=S(=O)([O-])c1ccc2ccccc2c1.[Na+],288.15,ethanol,CCO,0.0003633,0.006258235109359023,-2.203548125309469,Sodium 2-naphthalenesulfonate,532-02-5,23661868,No,10.1016/j.molliq.2017.04.112
O=S(=O)([O-])c1ccc2ccccc2c1.[Na+],293.15,ethanol,CCO,0.00043630000000000003,0.007480757722488132,-2.12605441042044,Sodium 2-naphthalenesulfonate,532-02-5,23661868,No,10.1016/j.molliq.2017.04.112
O=S(=O)([O-])c1ccc2ccccc2c1.[Na+],298.15,ethanol,CCO,0.000522,0.008904221686674273,-2.050404035993559,Sodium 2-naphthalenesulfonate,532-02-5,23661868,No,10.1016/j.molliq.2017.04.112
O=S(=O)([O-])c1ccc2ccccc2c1.[Na+],303.15,ethanol,CCO,0.000632,0.010719592512394682,-1.9698217233169424,Sodium 2-naphthalenesulfonate,532-02-5,23661868,No,10.1016/j.molliq.2017.04.112
O=S(=O)([O-])c1ccc2ccccc2c1.[Na+],308.15,ethanol,CCO,0.0007373,0.012434871415048218,-1.9053587012684918,Sodium 2-naphthalenesulfonate,532-02-5,23661868,No,10.1016/j.molliq.2017.04.112
O=S(=O)([O-])c1ccc2ccccc2c1.[Na+],313.15,ethanol,CCO,0.000875,0.014678797915775628,-1.833309508447278,Sodium 2-naphthalenesulfonate,532-02-5,23661868,No,10.1016/j.molliq.2017.04.112
O=S(=O)([O-])c1ccc2ccccc2c1.[Na+],318.15,ethanol,CCO,0.001016,0.016946875713106487,-1.7709103556098011,Sodium 2-naphthalenesulfonate,532-02-5,23661868,No,10.1016/j.molliq.2017.04.112
O=S(=O)([O-])c1ccc2ccccc2c1.[Na+],323.15,ethanol,CCO,0.001178,0.019538299713407006,-1.7091132326957585,Sodium 2-naphthalenesulfonate,532-02-5,23661868,No,10.1016/j.molliq.2017.04.112
O=S(=O)([O-])c1cccc2ccccc12.[Na+],278.15,ethanol,CCO,0.0002968,0.0051725078912227655,-2.2862988380983054,Sodium 1-naphthalenesulfonate,130-14-3,23661867,No,10.1016/j.molliq.2017.04.112
O=S(=O)([O-])c1cccc2ccccc12.[Na+],283.15,ethanol,CCO,0.0003861,0.006687193269175012,-2.174756124904887,Sodium 1-naphthalenesulfonate,130-14-3,23661867,No,10.1016/j.molliq.2017.04.112
O=S(=O)([O-])c1cccc2ccccc12.[Na+],288.15,ethanol,CCO,0.0005127,0.008833131711746154,-2.053885293704599,Sodium 1-naphthalenesulfonate,130-14-3,23661867,No,10.1016/j.molliq.2017.04.112
O=S(=O)([O-])c1cccc2ccccc12.[Na+],293.15,ethanol,CCO,0.0006676999999999999,0.01145097071709623,-1.9411576959259278,Sodium 1-naphthalenesulfonate,130-14-3,23661867,No,10.1016/j.molliq.2017.04.112
O=S(=O)([O-])c1cccc2ccccc12.[Na+],298.15,ethanol,CCO,0.0008294,0.01415217155177835,-1.8491769155746525,Sodium 1-naphthalenesulfonate,130-14-3,23661867,No,10.1016/j.molliq.2017.04.112
O=S(=O)([O-])c1cccc2ccccc12.[Na+],303.15,ethanol,CCO,0.001064,0.018054713481983703,-1.7434093991884578,Sodium 1-naphthalenesulfonate,130-14-3,23661867,No,10.1016/j.molliq.2017.04.112
O=S(=O)([O-])c1cccc2ccccc12.[Na+],308.15,ethanol,CCO,0.001321,0.02229223647043401,-1.6518463587048413,Sodium 1-naphthalenesulfonate,130-14-3,23661867,No,10.1016/j.molliq.2017.04.112
O=S(=O)([O-])c1cccc2ccccc12.[Na+],313.15,ethanol,CCO,0.0016719999999999999,0.02807147840769889,-1.5517347142840536,Sodium 1-naphthalenesulfonate,130-14-3,23661867,No,10.1016/j.molliq.2017.04.112
O=S(=O)([O-])c1cccc2ccccc12.[Na+],318.15,ethanol,CCO,0.002173,0.036287658351954126,-1.4402410559834231,Sodium 1-naphthalenesulfonate,130-14-3,23661867,No,10.1016/j.molliq.2017.04.112
O=S(=O)([O-])c1cccc2ccccc12.[Na+],323.15,ethanol,CCO,0.002767,0.04596656955831212,-1.3375579060275054,Sodium 1-naphthalenesulfonate,130-14-3,23661867,No,10.1016/j.molliq.2017.04.112
O=C(O)CNC(=O)c1ccccc1,298.15,ethanol,CCO,0.01481,0.2562912407944536,-0.5912662363426362,Hippuric acid,495-69-2,464,No,10.1016/j.molliq.2017.04.122
O=C(O)CNC(=O)c1ccccc1,303.15,ethanol,CCO,0.016220000000000002,0.27947276916943053,-0.5536605018225905,Hippuric acid,495-69-2,464,No,10.1016/j.molliq.2017.04.122
O=C(O)CNC(=O)c1ccccc1,308.15,ethanol,CCO,0.01944,0.3341171966700637,-0.47610117109423467,Hippuric acid,495-69-2,464,No,10.1016/j.molliq.2017.04.122
O=C(O)CNC(=O)c1ccccc1,313.15,ethanol,CCO,0.02402,0.4125098749701965,-0.3845656505231895,Hippuric acid,495-69-2,464,No,10.1016/j.molliq.2017.04.122
O=C(O)CNC(=O)c1ccccc1,318.15,ethanol,CCO,0.02902,0.4980140468601824,-0.3027584074655229,Hippuric acid,495-69-2,464,No,10.1016/j.molliq.2017.04.122
O=C(O)CNC(=O)c1ccccc1,323.15,ethanol,CCO,0.03422,0.5869909075199442,-0.23136862591507448,Hippuric acid,495-69-2,464,No,10.1016/j.molliq.2017.04.122
O=C(O)CNC(=O)c1ccccc1,328.15,ethanol,CCO,0.03964,0.6796786622180793,-0.16769636407274285,Hippuric acid,495-69-2,464,No,10.1016/j.molliq.2017.04.122
O=C1CCC(c2ccccc2)=NN1,293.2,ethanol,CCO,0.004070000000000001,0.07003240440138793,-1.1547009628947695,"6-phenyl-4,5-dihydropyridazin-3(2H)-one",1011-46-7,242935,No,10.1016/j.molliq.2017.05.032
O=C1CCC(c2ccccc2)=NN1,298.2,ethanol,CCO,0.00466,0.07978802917157259,-1.0980622622170735,"6-phenyl-4,5-dihydropyridazin-3(2H)-one",1011-46-7,242935,No,10.1016/j.molliq.2017.05.032
O=C1CCC(c2ccccc2)=NN1,303.2,ethanol,CCO,0.00529,0.0901278171102046,-1.045141147389897,"6-phenyl-4,5-dihydropyridazin-3(2H)-one",1011-46-7,242935,No,10.1016/j.molliq.2017.05.032
O=C1CCC(c2ccccc2)=NN1,308.2,ethanol,CCO,0.00607,0.10291894869776365,-0.9875046586946096,"6-phenyl-4,5-dihydropyridazin-3(2H)-one",1011-46-7,242935,No,10.1016/j.molliq.2017.05.032
O=C1CCC(c2ccccc2)=NN1,313.2,ethanol,CCO,0.00696,0.11745025847938347,-0.9301460231090539,"6-phenyl-4,5-dihydropyridazin-3(2H)-one",1011-46-7,242935,No,10.1016/j.molliq.2017.05.032
O=C(O)c1ccccc1Nc1cccc(C(F)(F)F)c1,298.2,ethanol,CCO,0.0681,1.2453776825597,0.09530107880306515,Flufenamic acid,530-78-9,3371,Yes,10.1016/j.molliq.2017.05.105
O=C(O)c1ccccc1Nc1cccc(C(F)(F)F)c1,303.2,ethanol,CCO,0.0747,1.3681625679342462,0.1361377042277024,Flufenamic acid,530-78-9,3371,Yes,10.1016/j.molliq.2017.05.105
O=C(O)c1ccccc1Nc1cccc(C(F)(F)F)c1,308.2,ethanol,CCO,0.0857,1.5796270117081166,0.19855455158734817,Flufenamic acid,530-78-9,3371,Yes,10.1016/j.molliq.2017.05.105
O=C(O)c1ccccc1Nc1cccc(C(F)(F)F)c1,313.2,ethanol,CCO,0.098,1.8206690844540805,0.26023101781292524,Flufenamic acid,530-78-9,3371,Yes,10.1016/j.molliq.2017.05.105
O=C(O)c1ccccc1Nc1cccc(C(F)(F)F)c1,318.2,ethanol,CCO,0.11200000000000002,2.101607724458186,0.3225516560301079,Flufenamic acid,530-78-9,3371,Yes,10.1016/j.molliq.2017.05.105
Cc1cc(N)n(-c2ccccc2)n1,283.15,ethanol,CCO,0.0766,1.4362011145122773,0.15721525940991177,5-amino-3-methyl-1-phenylpyrazole,1131-18-6,70801,No,10.1016/j.molliq.2017.05.124
Cc1cc(N)n(-c2ccccc2)n1,285.65,ethanol,CCO,0.0811,1.5251067122922233,0.1833002324947737,5-amino-3-methyl-1-phenylpyrazole,1131-18-6,70801,No,10.1016/j.molliq.2017.05.124
Cc1cc(N)n(-c2ccccc2)n1,288.15,ethanol,CCO,0.0854,1.6078863288842964,0.20625534261935038,5-amino-3-methyl-1-phenylpyrazole,1131-18-6,70801,No,10.1016/j.molliq.2017.05.124
Cc1cc(N)n(-c2ccccc2)n1,290.65,ethanol,CCO,0.0903,1.7058743955350149,0.23194705066840662,5-amino-3-methyl-1-phenylpyrazole,1131-18-6,70801,No,10.1016/j.molliq.2017.05.124
Cc1cc(N)n(-c2ccccc2)n1,293.15,ethanol,CCO,0.0955,1.8095294388673915,0.25756565295052464,5-amino-3-methyl-1-phenylpyrazole,1131-18-6,70801,No,10.1016/j.molliq.2017.05.124
Cc1cc(N)n(-c2ccccc2)n1,295.65,ethanol,CCO,0.1012,1.9242946932201057,0.2842715821710846,5-amino-3-methyl-1-phenylpyrazole,1131-18-6,70801,No,10.1016/j.molliq.2017.05.124
Cc1cc(N)n(-c2ccccc2)n1,298.15,ethanol,CCO,0.1068,2.0385493917849056,0.3093212383880146,5-amino-3-methyl-1-phenylpyrazole,1131-18-6,70801,No,10.1016/j.molliq.2017.05.124
Cc1cc(N)n(-c2ccccc2)n1,300.65,ethanol,CCO,0.1127,2.158692746175903,0.33419083217384254,5-amino-3-methyl-1-phenylpyrazole,1131-18-6,70801,No,10.1016/j.molliq.2017.05.124
Cc1cc(N)n(-c2ccccc2)n1,303.15,ethanol,CCO,0.1188,2.2852230170798986,0.35892858968417385,5-amino-3-methyl-1-phenylpyrazole,1131-18-6,70801,No,10.1016/j.molliq.2017.05.124
Cc1cc(N)n(-c2ccccc2)n1,305.65,ethanol,CCO,0.1256,2.427653101710098,0.38518662854138647,5-amino-3-methyl-1-phenylpyrazole,1131-18-6,70801,No,10.1016/j.molliq.2017.05.124
Cc1cc(N)n(-c2ccccc2)n1,308.15,ethanol,CCO,0.1323,2.5696086653050023,0.40986698814085076,5-amino-3-methyl-1-phenylpyrazole,1131-18-6,70801,No,10.1016/j.molliq.2017.05.124
Cc1cc(N)n(-c2ccccc2)n1,310.65,ethanol,CCO,0.1393,2.7199599916511747,0.4345625159706277,5-amino-3-methyl-1-phenylpyrazole,1131-18-6,70801,No,10.1016/j.molliq.2017.05.124
Cc1cc(N)n(-c2ccccc2)n1,313.15,ethanol,CCO,0.1467,2.881579678286747,0.4596306327189864,5-amino-3-methyl-1-phenylpyrazole,1131-18-6,70801,No,10.1016/j.molliq.2017.05.124
Cc1cc(N)n(-c2ccccc2)n1,315.65,ethanol,CCO,0.1543,3.0489832015687144,0.48415503161821466,5-amino-3-methyl-1-phenylpyrazole,1131-18-6,70801,No,10.1016/j.molliq.2017.05.124
Cc1cc(N)n(-c2ccccc2)n1,318.15,ethanol,CCO,0.1627,3.2378813529533046,0.5102609306737665,5-amino-3-methyl-1-phenylpyrazole,1131-18-6,70801,No,10.1016/j.molliq.2017.05.124
Cc1c(OCC(F)(F)F)ccnc1CS(=O)c1nc2ccccc2[nH]1,278.15,ethanol,CCO,0.00976,0.17171874266083315,-0.7651823001219091,Lansoprazole,103577-45-3,3883,No,10.1016/j.molliq.2017.06.037
Cc1c(OCC(F)(F)F)ccnc1CS(=O)c1nc2ccccc2[nH]1,283.15,ethanol,CCO,0.0114,0.1996459962660922,-0.6997393947958552,Lansoprazole,103577-45-3,3883,No,10.1016/j.molliq.2017.06.037
Cc1c(OCC(F)(F)F)ccnc1CS(=O)c1nc2ccccc2[nH]1,288.15,ethanol,CCO,0.0145,0.2533611622360869,-0.5962599574054787,Lansoprazole,103577-45-3,3883,No,10.1016/j.molliq.2017.06.037
Cc1c(OCC(F)(F)F)ccnc1CS(=O)c1nc2ccccc2[nH]1,293.15,ethanol,CCO,0.0179,0.3123691763877538,-0.5053318275001127,Lansoprazole,103577-45-3,3883,No,10.1016/j.molliq.2017.06.037
Cc1c(OCC(F)(F)F)ccnc1CS(=O)c1nc2ccccc2[nH]1,298.15,ethanol,CCO,0.0221,0.3852977985770581,-0.4142034723484506,Lansoprazole,103577-45-3,3883,No,10.1016/j.molliq.2017.06.037
Cc1c(OCC(F)(F)F)ccnc1CS(=O)c1nc2ccccc2[nH]1,303.15,ethanol,CCO,0.027399999999999997,0.47753250096959804,-0.3209970648940416,Lansoprazole,103577-45-3,3883,No,10.1016/j.molliq.2017.06.037
Cc1c(OCC(F)(F)F)ccnc1CS(=O)c1nc2ccccc2[nH]1,308.15,ethanol,CCO,0.0327,0.5697224146565044,-0.24433669370790295,Lansoprazole,103577-45-3,3883,No,10.1016/j.molliq.2017.06.037
Cc1c(OCC(F)(F)F)ccnc1CS(=O)c1nc2ccccc2[nH]1,313.15,ethanol,CCO,0.0402,0.7020169076861166,-0.15365242800359008,Lansoprazole,103577-45-3,3883,No,10.1016/j.molliq.2017.06.037
Cc1c(OCC(F)(F)F)ccnc1CS(=O)c1nc2ccccc2[nH]1,318.15,ethanol,CCO,0.0487,0.8530331984324618,-0.06903406658691565,Lansoprazole,103577-45-3,3883,No,10.1016/j.molliq.2017.06.037
Cc1c(N(C)CS(=O)(=O)[O-])c(=O)n(-c2ccccc2)n1C.O.[Na+],293.15,ethanol,CCO,0.0032,0.055019013806040885,-1.2594871984325775,Dipyrone,5907-38-0,23674183,Yes,10.1016/j.molliq.2017.06.072
Cc1c(N(C)CS(=O)(=O)[O-])c(=O)n(-c2ccccc2)n1C.O.[Na+],298.15,ethanol,CCO,0.0037,0.06331553688672835,-1.1984897061561752,Dipyrone,5907-38-0,23674183,Yes,10.1016/j.molliq.2017.06.072
Cc1c(N(C)CS(=O)(=O)[O-])c(=O)n(-c2ccccc2)n1C.O.[Na+],303.05,ethanol,CCO,0.0042,0.0714907311318794,-1.1457502614047572,Dipyrone,5907-38-0,23674183,Yes,10.1016/j.molliq.2017.06.072
Cc1c(N(C)CS(=O)(=O)[O-])c(=O)n(-c2ccccc2)n1C.O.[Na+],308.05,ethanol,CCO,0.0049,0.08299752064211426,-1.0809348809676766,Dipyrone,5907-38-0,23674183,Yes,10.1016/j.molliq.2017.06.072
Cc1c(N(C)CS(=O)(=O)[O-])c(=O)n(-c2ccccc2)n1C.O.[Na+],313.05,ethanol,CCO,0.005600000000000001,0.09438698675702724,-1.0250878782569284,Dipyrone,5907-38-0,23674183,Yes,10.1016/j.molliq.2017.06.072
Cc1c(N(C)CS(=O)(=O)[O-])c(=O)n(-c2ccccc2)n1C.O.[Na+],318.05,ethanol,CCO,0.0064,0.10734680937738457,-0.9692108593822583,Dipyrone,5907-38-0,23674183,Yes,10.1016/j.molliq.2017.06.072
Cc1c(N(C)CS(=O)(=O)[O-])c(=O)n(-c2ccccc2)n1C.O.[Na+],323.05,ethanol,CCO,0.0073,0.12185604040814396,-0.9141529379531562,Dipyrone,5907-38-0,23674183,Yes,10.1016/j.molliq.2017.06.072
Cc1c(N(C)CS(=O)(=O)[O-])c(=O)n(-c2ccccc2)n1C.O.[Na+],327.95,ethanol,CCO,0.008199999999999999,0.13623516305499475,-0.8657107841280736,Dipyrone,5907-38-0,23674183,Yes,10.1016/j.molliq.2017.06.072
Cc1c(N(C)CS(=O)(=O)[O-])c(=O)n(-c2ccccc2)n1C.O.[Na+],332.85,ethanol,CCO,0.0092,0.15214045932652373,-0.8177552769026538,Dipyrone,5907-38-0,23674183,Yes,10.1016/j.molliq.2017.06.072
O.O=C1NC(=O)C(=O)C(=O)N1,293.15,ethanol,CCO,0.0856,1.604384286668631,0.2053083998525387,Alloxan,2244-11-3,16723,No,10.1016/j.molliq.2017.06.107
O.O=C1NC(=O)C(=O)C(=O)N1,298.15,ethanol,CCO,0.0962,1.814685776063768,0.2588014351375073,Alloxan,2244-11-3,16723,No,10.1016/j.molliq.2017.06.107
O.O=C1NC(=O)C(=O)C(=O)N1,303.15,ethanol,CCO,0.1069,2.0289168706375817,0.30726425336011987,Alloxan,2244-11-3,16723,No,10.1016/j.molliq.2017.06.107
O.O=C1NC(=O)C(=O)C(=O)N1,308.15,ethanol,CCO,0.119,2.276395898182534,0.3572477943856389,Alloxan,2244-11-3,16723,No,10.1016/j.molliq.2017.06.107
O.O=C1NC(=O)C(=O)C(=O)N1,313.15,ethanol,CCO,0.131,2.5267006013552678,0.40255378371544026,Alloxan,2244-11-3,16723,No,10.1016/j.molliq.2017.06.107
O.O=C1NC(=O)C(=O)C(=O)N1,318.15,ethanol,CCO,0.1426,2.771344499462609,0.44269051528643416,Alloxan,2244-11-3,16723,No,10.1016/j.molliq.2017.06.107
O.O=C1NC(=O)C(=O)C(=O)N1,323.15,ethanol,CCO,0.1546,3.0295409171243284,0.48137682247417557,Alloxan,2244-11-3,16723,No,10.1016/j.molliq.2017.06.107
CCN(CC)CC(=O)Nc1c(C)cccc1C,292.15,ethanol,CCO,0.0043,0.07409311105152196,-1.1302221695023382,Lidocaine,137-58-6,3676,Yes,10.1016/j.molliq.2017.06.110
CCN(CC)CC(=O)Nc1c(C)cccc1C,297.15,ethanol,CCO,0.004699999999999999,0.08057018810763635,-1.0938256224051868,Lidocaine,137-58-6,3676,Yes,10.1016/j.molliq.2017.06.110
CCN(CC)CC(=O)Nc1c(C)cccc1C,302.15,ethanol,CCO,0.0052,0.0886905429700903,-1.052122686311094,Lidocaine,137-58-6,3676,Yes,10.1016/j.molliq.2017.06.110
CCN(CC)CC(=O)Nc1c(C)cccc1C,307.15,ethanol,CCO,0.005600000000000001,0.09501721825241932,-1.0221976882433599,Lidocaine,137-58-6,3676,Yes,10.1016/j.molliq.2017.06.110
CCN(CC)CC(=O)Nc1c(C)cccc1C,312.15,ethanol,CCO,0.0062,0.10466947094928546,-0.9801799709634643,Lidocaine,137-58-6,3676,Yes,10.1016/j.molliq.2017.06.110
CCN(CC)CC(=O)Nc1c(C)cccc1C,317.15,ethanol,CCO,0.0067,0.11252778051851266,-0.9487402470059907,Lidocaine,137-58-6,3676,Yes,10.1016/j.molliq.2017.06.110
CCN(CC)CC(=O)Nc1c(C)cccc1C,322.15,ethanol,CCO,0.0073,0.12198157647785565,-0.9137057581630257,Lidocaine,137-58-6,3676,Yes,10.1016/j.molliq.2017.06.110
CCN(CC)CC(=O)Nc1c(C)cccc1C,327.15,ethanol,CCO,0.008,0.13300793144620798,-0.8761224606824106,Lidocaine,137-58-6,3676,Yes,10.1016/j.molliq.2017.06.110
CCN(CC)CC(=O)Nc1c(C)cccc1C,332.15,ethanol,CCO,0.0086,0.14224736208621122,-0.8469557786553851,Lidocaine,137-58-6,3676,Yes,10.1016/j.molliq.2017.06.110
O=C(c1ccccc1)C(O)c1ccccc1,283.15,ethanol,CCO,0.00109,0.018891937367909797,-1.7237235029014066,Benzoin,119-53-9,8400,Yes,10.1016/j.molliq.2017.07.125
O=C(c1ccccc1)C(O)c1ccccc1,288.15,ethanol,CCO,0.00138,0.0237961937148752,-1.6234925043226764,Benzoin,119-53-9,8400,Yes,10.1016/j.molliq.2017.07.125
O=C(c1ccccc1)C(O)c1ccccc1,293.15,ethanol,CCO,0.00206,0.0353780297104018,-1.4512663576820175,Benzoin,119-53-9,8400,Yes,10.1016/j.molliq.2017.07.125
O=C(c1ccccc1)C(O)c1ccccc1,298.15,ethanol,CCO,0.00246,0.042043947766806,-1.3762965121289295,Benzoin,119-53-9,8400,Yes,10.1016/j.molliq.2017.07.125
O=C(c1ccccc1)C(O)c1ccccc1,303.15,ethanol,CCO,0.00312,0.05305158315046071,-1.2753016514751736,Benzoin,119-53-9,8400,Yes,10.1016/j.molliq.2017.07.125
O=C(c1ccccc1)C(O)c1ccccc1,308.15,ethanol,CCO,0.00365,0.0617387284596396,-1.2094423192764803,Benzoin,119-53-9,8400,Yes,10.1016/j.molliq.2017.07.125
O=C(c1ccccc1)C(O)c1ccccc1,313.15,ethanol,CCO,0.00488,0.08219523315136115,-1.0851533683004488,Benzoin,119-53-9,8400,Yes,10.1016/j.molliq.2017.07.125
O=C(c1ccccc1)C(O)c1ccccc1,318.15,ethanol,CCO,0.00645,0.10817439025376444,-0.96587554410864,Benzoin,119-53-9,8400,Yes,10.1016/j.molliq.2017.07.125