SMILES_Solute,Temperature_K,Solvent,SMILES_Solvent,Solubility(mole_fraction),Solubility(mol/L),LogS(mol/L),Compound_Name,CAS,PubChem_CID,FDA_Approved,Source
Cc1c(-c2ccccc2)oc2c(C(=O)O)cccc2c1=O,278.15,ethanol,CCO,0.001081,0.01885401150598643,-1.7245962322188,3-methylflavone-8-carboxylic acid,3468-01-7,77016,No,10.1016/j.molliq.2022.119017
Cc1c(-c2ccccc2)oc2c(C(=O)O)cccc2c1=O,283.15,ethanol,CCO,0.0012839999999999998,0.02225867847392524,-1.6525006238521256,3-methylflavone-8-carboxylic acid,3468-01-7,77016,No,10.1016/j.molliq.2022.119017
Cc1c(-c2ccccc2)oc2c(C(=O)O)cccc2c1=O,288.15,ethanol,CCO,0.0015279999999999998,0.026352154781211758,-1.5791838673080203,3-methylflavone-8-carboxylic acid,3468-01-7,77016,No,10.1016/j.molliq.2022.119017
Cc1c(-c2ccccc2)oc2c(C(=O)O)cccc2c1=O,293.15,ethanol,CCO,0.001814,0.031145597073346316,-1.5066033391139986,3-methylflavone-8-carboxylic acid,3468-01-7,77016,No,10.1016/j.molliq.2022.119017
Cc1c(-c2ccccc2)oc2c(C(=O)O)cccc2c1=O,298.15,ethanol,CCO,0.002165,0.03699115294112719,-1.4319021323730015,3-methylflavone-8-carboxylic acid,3468-01-7,77016,No,10.1016/j.molliq.2022.119017
Cc1c(-c2ccccc2)oc2c(C(=O)O)cccc2c1=O,303.15,ethanol,CCO,0.0025800000000000003,0.04384582752490552,-1.3580717288458946,3-methylflavone-8-carboxylic acid,3468-01-7,77016,No,10.1016/j.molliq.2022.119017
Cc1c(-c2ccccc2)oc2c(C(=O)O)cccc2c1=O,308.15,ethanol,CCO,0.003044,0.05145711081922942,-1.2885546019284475,3-methylflavone-8-carboxylic acid,3468-01-7,77016,No,10.1016/j.molliq.2022.119017
Cc1c(-c2ccccc2)oc2c(C(=O)O)cccc2c1=O,313.15,ethanol,CCO,0.00363,0.061064421452599285,-1.2142117532154377,3-methylflavone-8-carboxylic acid,3468-01-7,77016,No,10.1016/j.molliq.2022.119017
Cc1c(-c2ccccc2)oc2c(C(=O)O)cccc2c1=O,318.15,ethanol,CCO,0.004314,0.07219584585477122,-1.141487790993428,3-methylflavone-8-carboxylic acid,3468-01-7,77016,No,10.1016/j.molliq.2022.119017
Cc1c(-c2ccccc2)oc2c(C(=O)O)cccc2c1=O,323.15,ethanol,CCO,0.005124999999999999,0.08534044996845347,-1.0688450715973865,3-methylflavone-8-carboxylic acid,3468-01-7,77016,No,10.1016/j.molliq.2022.119017
NC(=O)c1cccnc1Cl,278.15,ethanol,CCO,0.0030320000000000004,0.05298541322421027,-1.275843674326654,2-chloronicotinamide,10366-35-5,82588,No,10.1016/j.molliq.2022.119054
NC(=O)c1cccnc1Cl,283.15,ethanol,CCO,0.003665,0.06368614365907492,-1.1959550478373593,2-chloronicotinamide,10366-35-5,82588,No,10.1016/j.molliq.2022.119054
NC(=O)c1cccnc1Cl,288.15,ethanol,CCO,0.00443,0.07662325442743284,-1.1156394061266282,2-chloronicotinamide,10366-35-5,82588,No,10.1016/j.molliq.2022.119054
NC(=O)c1cccnc1Cl,293.15,ethanol,CCO,0.005385999999999999,0.09280740589206789,-1.0324173663487484,2-chloronicotinamide,10366-35-5,82588,No,10.1016/j.molliq.2022.119054
NC(=O)c1cccnc1Cl,298.15,ethanol,CCO,0.006979999999999999,0.11983843454711919,-0.9214038728087306,2-chloronicotinamide,10366-35-5,82588,No,10.1016/j.molliq.2022.119054
NC(=O)c1cccnc1Cl,303.15,ethanol,CCO,0.00821,0.1403169285062953,-0.8528899304444453,2-chloronicotinamide,10366-35-5,82588,No,10.1016/j.molliq.2022.119054
NC(=O)c1cccnc1Cl,308.15,ethanol,CCO,0.010129999999999998,0.17246780037415121,-0.7632919755191551,2-chloronicotinamide,10366-35-5,82588,No,10.1016/j.molliq.2022.119054
NC(=O)c1cccnc1Cl,313.15,ethanol,CCO,0.01242,0.21079076215462747,-0.6761484258749553,2-chloronicotinamide,10366-35-5,82588,No,10.1016/j.molliq.2022.119054
NC(=O)c1cccnc1Cl,318.15,ethanol,CCO,0.014750000000000001,0.24945949895694172,-0.6029999542782576,2-chloronicotinamide,10366-35-5,82588,No,10.1016/j.molliq.2022.119054
NC(=O)c1cccnc1Cl,323.15,ethanol,CCO,0.01778,0.2998834924542467,-0.5230474399868711,2-chloronicotinamide,10366-35-5,82588,No,10.1016/j.molliq.2022.119054
CC(=O)c1c(C)c2cnc(Nc3ccc(N4CCNCC4)cn3)nc2n(C2CCCC2)c1=O,293.15,ethanol,CCO,2.1099999999999998e-05,0.00036162835145049014,-3.4417375284294507,Palbociclib,571190-30-2,5330286,Yes,10.1016/j.molliq.2022.119059
CC(=O)c1c(C)c2cnc(Nc3ccc(N4CCNCC4)cn3)nc2n(C2CCCC2)c1=O,298.15,ethanol,CCO,2.6600000000000003e-05,0.00045351524351806735,-3.34340811088719,Palbociclib,571190-30-2,5330286,Yes,10.1016/j.molliq.2022.119059
CC(=O)c1c(C)c2cnc(Nc3ccc(N4CCNCC4)cn3)nc2n(C2CCCC2)c1=O,303.15,ethanol,CCO,3.0299999999999998e-05,0.0005136205899456214,-3.2893575746577994,Palbociclib,571190-30-2,5330286,Yes,10.1016/j.molliq.2022.119059
CC(=O)c1c(C)c2cnc(Nc3ccc(N4CCNCC4)cn3)nc2n(C2CCCC2)c1=O,308.15,ethanol,CCO,3.6099999999999997e-05,0.0006084145922154104,-3.215800378375394,Palbociclib,571190-30-2,5330286,Yes,10.1016/j.molliq.2022.119059
CC(=O)c1c(C)c2cnc(Nc3ccc(N4CCNCC4)cn3)nc2n(C2CCCC2)c1=O,313.15,ethanol,CCO,4.12e-05,0.0006905853703630786,-3.160782626157264,Palbociclib,571190-30-2,5330286,Yes,10.1016/j.molliq.2022.119059
CC(=O)c1c(C)c2cnc(Nc3ccc(N4CCNCC4)cn3)nc2n(C2CCCC2)c1=O,318.15,ethanol,CCO,4.81e-05,0.0008015312059768663,-3.0960795646139774,Palbociclib,571190-30-2,5330286,Yes,10.1016/j.molliq.2022.119059
CC(=O)c1c(C)c2cnc(Nc3ccc(N4CCNCC4)cn3)nc2n(C2CCCC2)c1=O,323.15,ethanol,CCO,5.6e-05,0.0009277734165976607,-3.032558075436944,Palbociclib,571190-30-2,5330286,Yes,10.1016/j.molliq.2022.119059
CC(=O)c1c(C)c2cnc(Nc3ccc(N4CCNCC4)cn3)nc2n(C2CCCC2)c1=O,328.15,ethanol,CCO,6.41e-05,0.0010555770071647935,-2.976510078257035,Palbociclib,571190-30-2,5330286,Yes,10.1016/j.molliq.2022.119059
CC(=O)c1c(C)c2cnc(Nc3ccc(N4CCNCC4)cn3)nc2n(C2CCCC2)c1=O,333.15,ethanol,CCO,7.269999999999999e-05,0.001190580813837248,-2.924241120366283,Palbociclib,571190-30-2,5330286,Yes,10.1016/j.molliq.2022.119059
Cc1nc2n(c(=O)c1CCN1CCC(c3noc4cc(F)ccc34)CC1)CCCC2,278.15,ethanol,CCO,0.0008759999999999999,0.015275416565489029,-1.816006937574675,Risperidone,106266-06-2,5073,Yes,10.1016/j.molliq.2022.119061
Cc1nc2n(c(=O)c1CCN1CCC(c3noc4cc(F)ccc34)CC1)CCCC2,283.15,ethanol,CCO,0.001066,0.01847552420833505,-1.7334032304672353,Risperidone,106266-06-2,5073,Yes,10.1016/j.molliq.2022.119061
Cc1nc2n(c(=O)c1CCN1CCC(c3noc4cc(F)ccc34)CC1)CCCC2,288.15,ethanol,CCO,0.0013289999999999999,0.022915598853972718,-1.6398687888412997,Risperidone,106266-06-2,5073,Yes,10.1016/j.molliq.2022.119061
Cc1nc2n(c(=O)c1CCN1CCC(c3noc4cc(F)ccc34)CC1)CCCC2,293.15,ethanol,CCO,0.001564,0.02684648115663882,-1.5711126304263894,Risperidone,106266-06-2,5073,Yes,10.1016/j.molliq.2022.119061
Cc1nc2n(c(=O)c1CCN1CCC(c3noc4cc(F)ccc34)CC1)CCCC2,298.15,ethanol,CCO,0.00209,0.035707020387885584,-1.447246388482347,Risperidone,106266-06-2,5073,Yes,10.1016/j.molliq.2022.119061
Cc1nc2n(c(=O)c1CCN1CCC(c3noc4cc(F)ccc34)CC1)CCCC2,303.15,ethanol,CCO,0.002588,0.043982136346476526,-1.3567236794556126,Risperidone,106266-06-2,5073,Yes,10.1016/j.molliq.2022.119061
Cc1nc2n(c(=O)c1CCN1CCC(c3noc4cc(F)ccc34)CC1)CCCC2,308.15,ethanol,CCO,0.003333,0.05635883098142532,-1.2490380237880474,Risperidone,106266-06-2,5073,Yes,10.1016/j.molliq.2022.119061
Cc1nc2n(c(=O)c1CCN1CCC(c3noc4cc(F)ccc34)CC1)CCCC2,313.15,ethanol,CCO,0.004272,0.07191057953816914,-1.143207211188073,Risperidone,106266-06-2,5073,Yes,10.1016/j.molliq.2022.119061
O=C(NC[C@H]1CN(c2ccc(N3CCOCC3=O)cc2)C(=O)O1)c1ccc(Cl)s1,283.15,ethanol,CCO,1.21e-05,0.00020949177924480696,-3.678833014696096,Rivaroxaban,366789-02-8,9875401,Yes,10.1016/j.molliq.2022.119064
O=C(NC[C@H]1CN(c2ccc(N3CCOCC3=O)cc2)C(=O)O1)c1ccc(Cl)s1,288.15,ethanol,CCO,1.4599999999999999e-05,0.0002514130782586315,-3.5996121344948313,Rivaroxaban,366789-02-8,9875401,Yes,10.1016/j.molliq.2022.119064
O=C(NC[C@H]1CN(c2ccc(N3CCOCC3=O)cc2)C(=O)O1)c1ccc(Cl)s1,293.15,ethanol,CCO,1.75e-05,0.00029992764774401583,-3.5229834985311594,Rivaroxaban,366789-02-8,9875401,Yes,10.1016/j.molliq.2022.119064
O=C(NC[C@H]1CN(c2ccc(N3CCOCC3=O)cc2)C(=O)O1)c1ccc(Cl)s1,298.15,ethanol,CCO,2.09e-05,0.00035633137447847567,-3.4481459369445435,Rivaroxaban,366789-02-8,9875401,Yes,10.1016/j.molliq.2022.119064
O=C(NC[C@H]1CN(c2ccc(N3CCOCC3=O)cc2)C(=O)O1)c1ccc(Cl)s1,303.15,ethanol,CCO,2.5e-05,0.00042377711855481713,-3.3728624963124663,Rivaroxaban,366789-02-8,9875401,Yes,10.1016/j.molliq.2022.119064
O=C(NC[C@H]1CN(c2ccc(N3CCOCC3=O)cc2)C(=O)O1)c1ccc(Cl)s1,308.15,ethanol,CCO,0.000294,0.004956233663552974,-2.3048482268319885,Rivaroxaban,366789-02-8,9875401,Yes,10.1016/j.molliq.2022.119064
O=C(c1ccccc1)c1ccc(Cl)cc1,278.15,ethanol,CCO,0.008173999999999999,0.1435844774949821,-0.8428925078837938,4-chlorobenzophenone,134-85-0,8653,No,10.1016/j.molliq.2022.119438
O=C(c1ccccc1)c1ccc(Cl)cc1,283.15,ethanol,CCO,0.010265,0.17956280673236932,-0.7457836147938115,4-chlorobenzophenone,134-85-0,8653,No,10.1016/j.molliq.2022.119438
O=C(c1ccccc1)c1ccc(Cl)cc1,288.15,ethanol,CCO,0.012409,0.2163656581126147,-0.6648116699783723,4-chlorobenzophenone,134-85-0,8653,No,10.1016/j.molliq.2022.119438
O=C(c1ccccc1)c1ccc(Cl)cc1,293.15,ethanol,CCO,0.015094,0.2626518203280117,-0.5806195849401751,4-chlorobenzophenone,134-85-0,8653,No,10.1016/j.molliq.2022.119438
O=C(c1ccccc1)c1ccc(Cl)cc1,298.15,ethanol,CCO,0.019527000000000003,0.3395459757767306,-0.4691014123281928,4-chlorobenzophenone,134-85-0,8653,No,10.1016/j.molliq.2022.119438
O=C(c1ccccc1)c1ccc(Cl)cc1,303.15,ethanol,CCO,0.023866,0.41443538960066867,-0.3825431662646345,4-chlorobenzophenone,134-85-0,8653,No,10.1016/j.molliq.2022.119438
O=C(c1ccccc1)c1ccc(Cl)cc1,308.15,ethanol,CCO,0.031786999999999996,0.5532932522919518,-0.25704462620775287,4-chlorobenzophenone,134-85-0,8653,No,10.1016/j.molliq.2022.119438
O=C(c1ccccc1)c1ccc(Cl)cc1,313.15,ethanol,CCO,0.042970999999999995,0.7525799208553142,-0.12344737301863579,4-chlorobenzophenone,134-85-0,8653,No,10.1016/j.molliq.2022.119438
O=C(c1ccccc1)c1ccc(Cl)cc1,318.15,ethanol,CCO,0.060012,1.0638251667905012,0.02687026016105925,4-chlorobenzophenone,134-85-0,8653,No,10.1016/j.molliq.2022.119438
O=C(c1ccccc1)c1ccc(Cl)cc1,323.15,ethanol,CCO,0.085619,1.5512169238353284,0.19067253426572478,4-chlorobenzophenone,134-85-0,8653,No,10.1016/j.molliq.2022.119438
O=c1c2ccccc2sc2ccc(Cl)cc12,287.55,ethanol,CCO,0.0005669999999999999,0.009782960526291316,-2.009529698825239,2-chlorothioxanthone (CTX),86-39-5,618848,No,10.1016/j.molliq.2022.119503
O=c1c2ccccc2sc2ccc(Cl)cc12,293.15,ethanol,CCO,0.000679,0.011644895965955882,-1.9338643870445527,2-chlorothioxanthone (CTX),86-39-5,618848,No,10.1016/j.molliq.2022.119503
O=c1c2ccccc2sc2ccc(Cl)cc12,298.15,ethanol,CCO,0.000795,0.013564732387436315,-1.8675887698202724,2-chlorothioxanthone (CTX),86-39-5,618848,No,10.1016/j.molliq.2022.119503
O=c1c2ccccc2sc2ccc(Cl)cc12,303.15,ethanol,CCO,0.0009429999999999999,0.01599956087597094,-1.795891936829061,2-chlorothioxanthone (CTX),86-39-5,618848,No,10.1016/j.molliq.2022.119503
O=c1c2ccccc2sc2ccc(Cl)cc12,308.35,ethanol,CCO,0.001221,0.020598489893284954,-1.6861646172547702,2-chlorothioxanthone (CTX),86-39-5,618848,No,10.1016/j.molliq.2022.119503
O=c1c2ccccc2sc2ccc(Cl)cc12,313.35,ethanol,CCO,0.001497,0.025119452117366964,-1.5999898372676093,2-chlorothioxanthone (CTX),86-39-5,618848,No,10.1016/j.molliq.2022.119503
O=c1c2ccccc2sc2ccc(Cl)cc12,318.15,ethanol,CCO,0.001896,0.03165315510577761,-1.4995829941225975,2-chlorothioxanthone (CTX),86-39-5,618848,No,10.1016/j.molliq.2022.119503
O=c1c2ccccc2sc2ccc(Cl)cc12,322.15,ethanol,CCO,0.00229,0.03807330349792932,-1.419379439217203,2-chlorothioxanthone (CTX),86-39-5,618848,No,10.1016/j.molliq.2022.119503
O=c1c2ccccc2sc2ccc(Cl)cc12,327.65,ethanol,CCO,0.0029649999999999998,0.04901891712817425,-1.3096362869324314,2-chlorothioxanthone (CTX),86-39-5,618848,No,10.1016/j.molliq.2022.119503
CC(N)=S,273.15,ethanol,CCO,0.06398,1.1973611166098677,0.07822515065619781,Thioacetamide,62-55-5,2723949,No,10.1016/j.molliq.2022.119847
CC(N)=S,277.95,ethanol,CCO,0.07524,1.4178250727352357,0.15162265212200696,Thioacetamide,62-55-5,2723949,No,10.1016/j.molliq.2022.119847
CC(N)=S,283.45,ethanol,CCO,0.09013,1.715873082854244,0.2344851614529512,Thioacetamide,62-55-5,2723949,No,10.1016/j.molliq.2022.119847
CC(N)=S,288.25,ethanol,CCO,0.1047,2.0150438373713104,0.3042844986763193,Thioacetamide,62-55-5,2723949,No,10.1016/j.molliq.2022.119847
CC(N)=S,293.25,ethanol,CCO,0.1219,2.378861378302626,0.3763691354410996,Thioacetamide,62-55-5,2723949,No,10.1016/j.molliq.2022.119847
CC(N)=S,298.15,ethanol,CCO,0.1408,2.793875739705962,0.4462070865454904,Thioacetamide,62-55-5,2723949,No,10.1016/j.molliq.2022.119847
CC(N)=S,302.35,ethanol,CCO,0.1588,3.2023136637119847,0.5054638684163976,Thioacetamide,62-55-5,2723949,No,10.1016/j.molliq.2022.119847
CC(N)=S,308.05,ethanol,CCO,0.1859,3.8489068473864796,0.5853374002721476,Thioacetamide,62-55-5,2723949,No,10.1016/j.molliq.2022.119847
CC(N)=S,313.35,ethanol,CCO,0.2139,4.55901188871859,0.6588707247306196,Thioacetamide,62-55-5,2723949,No,10.1016/j.molliq.2022.119847
CC(N)=S,318.25,ethanol,CCO,0.2427,5.339784114970955,0.7275236990562522,Thioacetamide,62-55-5,2723949,No,10.1016/j.molliq.2022.119847
CC(N)=S,323.15,ethanol,CCO,0.2742,6.25864131905464,0.7964800629738257,Thioacetamide,62-55-5,2723949,No,10.1016/j.molliq.2022.119847
O=C(Nc1ccc([N+](=O)[O-])cc1Cl)c1cc(Cl)ccc1O,298.15,ethanol,CCO,0.000166,0.002830602507162426,-2.5481211129967,Niclosamide,50-65-7,4477,Yes,10.1016/j.molliq.2022.120359
O=C(Nc1ccc([N+](=O)[O-])cc1Cl)c1cc(Cl)ccc1O,303.15,ethanol,CCO,0.000183,0.003102538721194544,-2.508282789588722,Niclosamide,50-65-7,4477,Yes,10.1016/j.molliq.2022.120359
O=C(Nc1ccc([N+](=O)[O-])cc1Cl)c1cc(Cl)ccc1O,308.15,ethanol,CCO,0.00018600000000000002,0.0031352376941403476,-2.5037295280899357,Niclosamide,50-65-7,4477,Yes,10.1016/j.molliq.2022.120359
O=C(Nc1ccc([N+](=O)[O-])cc1Cl)c1cc(Cl)ccc1O,313.15,ethanol,CCO,0.00018600000000000002,0.00311814276080891,-2.5061040049867493,Niclosamide,50-65-7,4477,Yes,10.1016/j.molliq.2022.120359
O=C(Nc1ccc([N+](=O)[O-])cc1Cl)c1cc(Cl)ccc1O,318.15,ethanol,CCO,0.000199,0.0033166067368164257,-2.4793060214428047,Niclosamide,50-65-7,4477,Yes,10.1016/j.molliq.2022.120359
O=C(Nc1ccc([N+](=O)[O-])cc1Cl)c1cc(Cl)ccc1O,323.15,ethanol,CCO,0.0002,0.003313953723910251,-2.4796535603677206,Niclosamide,50-65-7,4477,Yes,10.1016/j.molliq.2022.120359
C1=CONN=C1,293.15,ethanol,CCO,0.00163,0.02798123858383988,-1.5531330654617173,Oxadiazine,,20238530,No,10.1016/j.molliq.2022.120473
C1=CONN=C1,298.15,ethanol,CCO,0.00212,0.03622065024568967,-1.441043757346642,Oxadiazine,,20238530,No,10.1016/j.molliq.2022.120473
C1=CONN=C1,303.15,ethanol,CCO,0.0024100000000000002,0.04094978190020815,-1.3877484069631072,Oxadiazine,,20238530,No,10.1016/j.molliq.2022.120473
C1=CONN=C1,308.15,ethanol,CCO,0.0035099999999999997,0.059362326471029556,-1.2264890869451448,Oxadiazine,,20238530,No,10.1016/j.molliq.2022.120473
C1=CONN=C1,313.15,ethanol,CCO,0.00379,0.06376620596311613,-1.19540942240903,Oxadiazine,,20238530,No,10.1016/j.molliq.2022.120473
C1=CONN=C1,318.15,ethanol,CCO,0.00445,0.07448201258281416,-1.1279485967715912,Oxadiazine,,20238530,No,10.1016/j.molliq.2022.120473
C1=CONN=C1,323.15,ethanol,CCO,0.00507,0.08441993422225144,-1.0735549905720911,Oxadiazine,,20238530,No,10.1016/j.molliq.2022.120473
O=[N+]([O-])c1cccc2ccccc12,273.15,ethanol,CCO,0.009151,0.1617808538762577,-0.7910728767157037,1-nitronaphthalene,86-57-7,6849,No,10.1016/j.molliq.2022.120475
O=[N+]([O-])c1cccc2ccccc12,278.15,ethanol,CCO,0.0111,0.19555951407242775,-0.7087210505446585,1-nitronaphthalene,86-57-7,6849,No,10.1016/j.molliq.2022.120475
O=[N+]([O-])c1cccc2ccccc12,283.15,ethanol,CCO,0.0138,0.24226487281853532,-0.6157095518014523,1-nitronaphthalene,86-57-7,6849,No,10.1016/j.molliq.2022.120475
O=[N+]([O-])c1cccc2ccccc12,288.15,ethanol,CCO,0.01728,0.30279075603179545,-0.5188573876450919,1-nitronaphthalene,86-57-7,6849,No,10.1016/j.molliq.2022.120475
O=[N+]([O-])c1cccc2ccccc12,293.15,ethanol,CCO,0.02176,0.38122759255464767,-0.41881567345724163,1-nitronaphthalene,86-57-7,6849,No,10.1016/j.molliq.2022.120475
O=[N+]([O-])c1cccc2ccccc12,298.15,ethanol,CCO,0.02808,0.492566968240893,-0.3075347155007831,1-nitronaphthalene,86-57-7,6849,No,10.1016/j.molliq.2022.120475
O=[N+]([O-])c1cccc2ccccc12,303.15,ethanol,CCO,0.03657,0.6434153716333941,-0.1915085677178299,1-nitronaphthalene,86-57-7,6849,No,10.1016/j.molliq.2022.120475
O=[N+]([O-])c1cccc2ccccc12,308.15,ethanol,CCO,0.04674,0.8263310644710798,-0.08284592039521692,1-nitronaphthalene,86-57-7,6849,No,10.1016/j.molliq.2022.120475
Brc1cnc2[nH]ccc2c1,278.15,ethanol,CCO,0.0078,0.1369631474180178,-0.8633962724495485,5-bromo-7-azaindole,183208-35-7,10307932,No,10.1016/j.molliq.2022.120476
Brc1cnc2[nH]ccc2c1,283.15,ethanol,CCO,0.00958,0.1674643882858265,-0.776077532598948,5-bromo-7-azaindole,183208-35-7,10307932,No,10.1016/j.molliq.2022.120476
Brc1cnc2[nH]ccc2c1,288.15,ethanol,CCO,0.01062,0.18483748844274522,-0.7332099412725019,5-bromo-7-azaindole,183208-35-7,10307932,No,10.1016/j.molliq.2022.120476
Brc1cnc2[nH]ccc2c1,293.15,ethanol,CCO,0.01248,0.21659056682523903,-0.6643604621380194,5-bromo-7-azaindole,183208-35-7,10307932,No,10.1016/j.molliq.2022.120476
Brc1cnc2[nH]ccc2c1,298.15,ethanol,CCO,0.01389,0.24014612480035172,-0.6195244171091432,5-bromo-7-azaindole,183208-35-7,10307932,No,10.1016/j.molliq.2022.120476
Brc1cnc2[nH]ccc2c1,303.15,ethanol,CCO,0.01575,0.2712450192531547,-0.5666382278189188,5-bromo-7-azaindole,183208-35-7,10307932,No,10.1016/j.molliq.2022.120476
Brc1cnc2[nH]ccc2c1,308.15,ethanol,CCO,0.01766,0.30297417541717003,-0.5185943878402465,5-bromo-7-azaindole,183208-35-7,10307932,No,10.1016/j.molliq.2022.120476
Brc1cnc2[nH]ccc2c1,313.15,ethanol,CCO,0.01981,0.338747791577601,-0.47012352743499314,5-bromo-7-azaindole,183208-35-7,10307932,No,10.1016/j.molliq.2022.120476
Brc1cnc2[nH]ccc2c1,318.15,ethanol,CCO,0.02225,0.37918981143861225,-0.4211433403620167,5-bromo-7-azaindole,183208-35-7,10307932,No,10.1016/j.molliq.2022.120476
Brc1cnc2[nH]ccc2c1,323.15,ethanol,CCO,0.02449,0.4158978121865606,-0.3810133642174258,5-bromo-7-azaindole,183208-35-7,10307932,No,10.1016/j.molliq.2022.120476
CC1=C[C@H](O)CC(C)(C)[C@H]1/C=C/C(C)=C/C=C/C(C)=C/C=C/C=C(C)/C=C/C=C(C)/C=C/C1=C(C)C[C@@H](O)CC1(C)C,278.15,ethanol,CCO,1.752e-05,0.00030524605392241803,-3.515349941701823,Lutein,127-40-2,5281243,No,10.1016/j.molliq.2022.120752
CC1=C[C@H](O)CC(C)(C)[C@H]1/C=C/C(C)=C/C=C/C(C)=C/C=C/C=C(C)/C=C/C=C(C)/C=C/C1=C(C)C[C@@H](O)CC1(C)C,283.15,ethanol,CCO,1.965e-05,0.000340210292764283,-3.4682525513257083,Lutein,127-40-2,5281243,No,10.1016/j.molliq.2022.120752
CC1=C[C@H](O)CC(C)(C)[C@H]1/C=C/C(C)=C/C=C/C(C)=C/C=C/C=C(C)/C=C/C=C(C)/C=C/C1=C(C)C[C@@H](O)CC1(C)C,288.15,ethanol,CCO,2.2709999999999998e-05,0.00039107104884165717,-3.4077443338655784,Lutein,127-40-2,5281243,No,10.1016/j.molliq.2022.120752
CC1=C[C@H](O)CC(C)(C)[C@H]1/C=C/C(C)=C/C=C/C(C)=C/C=C/C=C(C)/C=C/C=C(C)/C=C/C1=C(C)C[C@@H](O)CC1(C)C,293.15,ethanol,CCO,2.6320000000000002e-05,0.00045109516093594723,-3.3457318317142777,Lutein,127-40-2,5281243,No,10.1016/j.molliq.2022.120752
CC1=C[C@H](O)CC(C)(C)[C@H]1/C=C/C(C)=C/C=C/C(C)=C/C=C/C=C(C)/C=C/C=C(C)/C=C/C1=C(C)C[C@@H](O)CC1(C)C,298.15,ethanol,CCO,3.158e-05,0.000538424162262021,-3.268875458996544,Lutein,127-40-2,5281243,No,10.1016/j.molliq.2022.120752
CC1=C[C@H](O)CC(C)(C)[C@H]1/C=C/C(C)=C/C=C/C(C)=C/C=C/C=C(C)/C=C/C=C(C)/C=C/C1=C(C)C[C@@H](O)CC1(C)C,303.15,ethanol,CCO,3.753e-05,0.0006361821819365201,-3.196418498691423,Lutein,127-40-2,5281243,No,10.1016/j.molliq.2022.120752
CC1=C[C@H](O)CC(C)(C)[C@H]1/C=C/C(C)=C/C=C/C(C)=C/C=C/C=C(C)/C=C/C=C(C)/C=C/C1=C(C)C[C@@H](O)CC1(C)C,308.15,ethanol,CCO,4.4779999999999995e-05,0.0007547103029060266,-3.1222197212094858,Lutein,127-40-2,5281243,No,10.1016/j.molliq.2022.120752
CC1=C[C@H](O)CC(C)(C)[C@H]1/C=C/C(C)=C/C=C/C(C)=C/C=C/C=C(C)/C=C/C=C(C)/C=C/C1=C(C)C[C@@H](O)CC1(C)C,313.15,ethanol,CCO,5.319e-05,0.0008915698129259015,-3.0498446444332155,Lutein,127-40-2,5281243,No,10.1016/j.molliq.2022.120752
CC1=C[C@H](O)CC(C)(C)[C@H]1/C=C/C(C)=C/C=C/C(C)=C/C=C/C=C(C)/C=C/C=C(C)/C=C/C1=C(C)C[C@@H](O)CC1(C)C,318.15,ethanol,CCO,6.42e-05,0.0010698364231931743,-2.9706826203851664,Lutein,127-40-2,5281243,No,10.1016/j.molliq.2022.120752
CC1=C[C@H](O)CC(C)(C)[C@H]1/C=C/C(C)=C/C=C/C(C)=C/C=C/C=C(C)/C=C/C=C(C)/C=C/C1=C(C)C[C@@H](O)CC1(C)C,323.15,ethanol,CCO,7.718e-05,0.0012786976609940302,-2.8932321292380805,Lutein,127-40-2,5281243,No,10.1016/j.molliq.2022.120752