SMILES_Solute,Temperature_K,Solvent,SMILES_Solvent,Solubility(mole_fraction),Solubility(mol/L),LogS(mol/L),Compound_Name,CAS,PubChem_CID,FDA_Approved,Source
O=[N+]([O-])c1ccn([N+](=O)[O-])n1,293.15,ethanol,CCO,0.02617,0.4605655244665126,-0.33670857417535516,"1,3-dinitropyrazole",38858-81-0,23279529,No,10.1007/s10953-024-01426-z
O=[N+]([O-])c1ccn([N+](=O)[O-])n1,298.15,ethanol,CCO,0.03078,0.541433281858752,-0.26645505169933703,"1,3-dinitropyrazole",38858-81-0,23279529,No,10.1007/s10953-024-01426-z
O=[N+]([O-])c1ccn([N+](=O)[O-])n1,303.15,ethanol,CCO,0.03743,0.6591346498672559,-0.18102585745312502,"1,3-dinitropyrazole",38858-81-0,23279529,No,10.1007/s10953-024-01426-z
O=[N+]([O-])c1ccn([N+](=O)[O-])n1,308.15,ethanol,CCO,0.04743,0.8391371843349625,-0.07616703377273439,"1,3-dinitropyrazole",38858-81-0,23279529,No,10.1007/s10953-024-01426-z
O=[N+]([O-])c1ccn([N+](=O)[O-])n1,313.15,ethanol,CCO,0.06392,1.1445270582599154,0.058626064475884414,"1,3-dinitropyrazole",38858-81-0,23279529,No,10.1007/s10953-024-01426-z
O=[N+]([O-])c1ccn([N+](=O)[O-])n1,318.15,ethanol,CCO,0.08654999999999999,1.5788350568935343,0.19833676102622863,"1,3-dinitropyrazole",38858-81-0,23279529,No,10.1007/s10953-024-01426-z
CCCCCCCCCCCCCCCCCC,283.05,ethanol,CCO,0.0018,0.03124929762283312,-1.505159739662494,Octadecane,593-45-3,11635,No,10.1016/0378-3812(87)80014-6
CCCCCCCCCCCCCCCCCC,285.75,ethanol,CCO,0.0025,0.04330390487850959,-1.3634729398885397,Octadecane,593-45-3,11635,No,10.1016/0378-3812(87)80014-6
CCCCCCCCCCCCCCCCCC,287.7,ethanol,CCO,0.0032,0.055349182912595066,-1.2568887859717164,Octadecane,593-45-3,11635,No,10.1016/0378-3812(87)80014-6
CCCCCCCCCCCCCCCCCC,289.25,ethanol,CCO,0.0038,0.06565459384311748,-1.1827348809847493,Octadecane,593-45-3,11635,No,10.1016/0378-3812(87)80014-6
CCCCCCCCCCCCCCCCCC,291.0,ethanol,CCO,0.0047,0.0811210467273686,-1.0908664541524133,Octadecane,593-45-3,11635,No,10.1016/0378-3812(87)80014-6
CCCCCCCCCCCCCCCCCC,292.6,ethanol,CCO,0.0058,0.10004053375208048,-0.9998239998187355,Octadecane,593-45-3,11635,No,10.1016/0378-3812(87)80014-6
CCCCCCCCCCCCCCCCCC,294.35,ethanol,CCO,0.0072,0.12412264338371351,-0.906148984016522,Octadecane,593-45-3,11635,No,10.1016/0378-3812(87)80014-6
CCCCCCCCCCCCCCCCCC,296.2,ethanol,CCO,0.0093,0.1603355165894018,-0.7949702646060748,Octadecane,593-45-3,11635,No,10.1016/0378-3812(87)80014-6
CCCCCCCCCCCCCCCCCC,297.95,ethanol,CCO,0.0122,0.21054014314087005,-0.6766650861351153,Octadecane,593-45-3,11635,No,10.1016/0378-3812(87)80014-6
CCCCCCCCCCCCCCCCCC,299.45,ethanol,CCO,0.0162,0.28023787958254714,-0.5524731617633123,Octadecane,593-45-3,11635,No,10.1016/0378-3812(87)80014-6
CCCCCCCCCCCCCCCCCCC,282.7,ethanol,CCO,0.0011,0.01909072123163026,-1.7191776640107128,Nonadecane,629-92-5,12401,No,10.1016/0378-3812(87)80014-6
CCCCCCCCCCCCCCCCCCC,284.8,ethanol,CCO,0.0014,0.024248736915845902,-1.6153108782891272,Nonadecane,629-92-5,12401,No,10.1016/0378-3812(87)80014-6
CCCCCCCCCCCCCCCCCCC,286.0,ethanol,CCO,0.0016,0.027681916747543885,-1.5578038418142233,Nonadecane,629-92-5,12401,No,10.1016/0378-3812(87)80014-6
CCCCCCCCCCCCCCCCCCC,287.4,ethanol,CCO,0.0019,0.03283160570867799,-1.4837078765345857,Nonadecane,629-92-5,12401,No,10.1016/0378-3812(87)80014-6
CCCCCCCCCCCCCCCCCCC,288.7,ethanol,CCO,0.0022,0.037972605216167056,-1.4205296058575128,Nonadecane,629-92-5,12401,No,10.1016/0378-3812(87)80014-6
CCCCCCCCCCCCCCCCCCC,289.95,ethanol,CCO,0.0025,0.04310424188659615,-1.3654799888348181,Nonadecane,629-92-5,12401,No,10.1016/0378-3812(87)80014-6
CCCCCCCCCCCCCCCCCCC,290.95,ethanol,CCO,0.003,0.051693955451916025,-1.2865602357716108,Nonadecane,629-92-5,12401,No,10.1016/0378-3812(87)80014-6
CCCCCCCCCCCCCCCCCCC,292.45,ethanol,CCO,0.0035,0.06023994373567836,-1.2201154424397567,Nonadecane,629-92-5,12401,No,10.1016/0378-3812(87)80014-6
CCCCCCCCCCCCCCCCCCC,293.75,ethanol,CCO,0.0041,0.07050779004714489,-1.1517628973690688,Nonadecane,629-92-5,12401,No,10.1016/0378-3812(87)80014-6
CCCCCCCCCCCCCCCCCCC,295.6,ethanol,CCO,0.0051,0.08761308608844698,-1.0574310217822378,Nonadecane,629-92-5,12401,No,10.1016/0378-3812(87)80014-6
CCCCCCCCCCCCCCCCCCC,297.25,ethanol,CCO,0.0062,0.10643266513657816,-0.9729250627233544,Nonadecane,629-92-5,12401,No,10.1016/0378-3812(87)80014-6
CCCCCCCCCCCCCCCCCCC,300.85,ethanol,CCO,0.0083,0.14221264931167862,-0.8470617729315704,Nonadecane,629-92-5,12401,No,10.1016/0378-3812(87)80014-6
CCCCCCCCCCCCCCCCCCC,303.85,ethanol,CCO,0.0115,0.1970174826678776,-0.7054952342987817,Nonadecane,629-92-5,12401,No,10.1016/0378-3812(87)80014-6
CC(=O)c1c(O)ccc2ccccc12,285.7,ethanol,CCO,0.0615,1.1323081474830263,0.05396463227624992,1-acetyl-2-naphthol,574-19-6,68455,No,10.1016/0378-3812(90)85008-X
CC(=O)c1c(O)ccc2ccccc12,288.9,ethanol,CCO,0.0712,1.3199373744714693,0.12055332623109913,1-acetyl-2-naphthol,574-19-6,68455,No,10.1016/0378-3812(90)85008-X
CC(=O)c1c(O)ccc2ccccc12,293.05,ethanol,CCO,0.0859,1.6106641640130244,0.20700499608618322,1-acetyl-2-naphthol,574-19-6,68455,No,10.1016/0378-3812(90)85008-X
CC(=O)c1c(O)ccc2ccccc12,297.0,ethanol,CCO,0.1045,1.9913776989384866,0.2991536392378702,1-acetyl-2-naphthol,574-19-6,68455,No,10.1016/0378-3812(90)85008-X
CC(=O)c1c(O)ccc2ccccc12,301.15,ethanol,CCO,0.1353,2.657830741748425,0.4245273203744998,1-acetyl-2-naphthol,574-19-6,68455,No,10.1016/0378-3812(90)85008-X
CC(=O)c1c(O)ccc2ccccc12,304.55,ethanol,CCO,0.1684,3.4266564867674365,0.5348705697409674,1-acetyl-2-naphthol,574-19-6,68455,No,10.1016/0378-3812(90)85008-X
CC(=O)c1c(O)ccc2ccccc12,310.05,ethanol,CCO,0.2341,5.140277274515172,0.7109865461439265,1-acetyl-2-naphthol,574-19-6,68455,No,10.1016/0378-3812(90)85008-X
CC(=O)c1c(O)ccc2ccccc12,314.65,ethanol,CCO,0.3209,7.9055864109625125,0.897934090030331,1-acetyl-2-naphthol,574-19-6,68455,No,10.1016/0378-3812(90)85008-X
CC(=O)c1ccc2ccccc2c1O,289.15,ethanol,CCO,0.0049,0.08476279550866517,-1.0717947285307703,2-acetyl-1-naphthol,711-79-5,69733,No,10.1016/0378-3812(90)85008-X
CC(=O)c1ccc2ccccc2c1O,292.6,ethanol,CCO,0.0055,0.09483740618396895,-1.023020332544903,2-acetyl-1-naphthol,711-79-5,69733,No,10.1016/0378-3812(90)85008-X
CC(=O)c1ccc2ccccc2c1O,296.25,ethanol,CCO,0.0064,0.110010268676919,-0.9585667746456066,2-acetyl-1-naphthol,711-79-5,69733,No,10.1016/0378-3812(90)85008-X
CC(=O)c1ccc2ccccc2c1O,299.95,ethanol,CCO,0.0075,0.1285308262249428,-0.8909927007074276,2-acetyl-1-naphthol,711-79-5,69733,No,10.1016/0378-3812(90)85008-X
CC(=O)c1ccc2ccccc2c1O,304.55,ethanol,CCO,0.0089,0.1519551745458729,-0.818284506255607,2-acetyl-1-naphthol,711-79-5,69733,No,10.1016/0378-3812(90)85008-X
CC(=O)c1ccc2ccccc2c1O,307.95,ethanol,CCO,0.0104,0.17715698816130848,-0.7516417117471959,2-acetyl-1-naphthol,711-79-5,69733,No,10.1016/0378-3812(90)85008-X
CC(=O)c1ccc2ccccc2c1O,310.55,ethanol,CCO,0.0117,0.1989799340682527,-0.7011907173733135,2-acetyl-1-naphthol,711-79-5,69733,No,10.1016/0378-3812(90)85008-X
CC(=O)c1ccc2ccccc2c1O,312.9,ethanol,CCO,0.013,0.22079291243183768,-0.6560148717994811,2-acetyl-1-naphthol,711-79-5,69733,No,10.1016/0378-3812(90)85008-X
CC(=O)c1ccc2ccccc2c1O,316.4,ethanol,CCO,0.015,0.25426735020032565,-0.5947094028529154,2-acetyl-1-naphthol,711-79-5,69733,No,10.1016/0378-3812(90)85008-X
CC(=O)c1ccc2ccccc2c1O,319.6,ethanol,CCO,0.0174,0.29459570219506087,-0.5307735932930634,2-acetyl-1-naphthol,711-79-5,69733,No,10.1016/0378-3812(90)85008-X
CC(=O)c1ccc2ccccc2c1O,323.4,ethanol,CCO,0.0207,0.35012473012572076,-0.45577721292012247,2-acetyl-1-naphthol,711-79-5,69733,No,10.1016/0378-3812(90)85008-X
CC(=O)c1ccc2ccccc2c1O,327.35,ethanol,CCO,0.025,0.4227997410893188,-0.37386528731426744,2-acetyl-1-naphthol,711-79-5,69733,No,10.1016/0378-3812(90)85008-X
CC(=O)c1ccc2ccccc2c1O,331.2,ethanol,CCO,0.0313,0.530428313211398,-0.2753733022064243,2-acetyl-1-naphthol,711-79-5,69733,No,10.1016/0378-3812(90)85008-X
CC(=O)c1ccc2ccccc2c1O,334.95,ethanol,CCO,0.0399,0.6792696860437927,-0.16795776635681356,2-acetyl-1-naphthol,711-79-5,69733,No,10.1016/0378-3812(90)85008-X
CC(=O)c1ccc2ccccc2c1O,338.65,ethanol,CCO,0.052,0.8927133833275811,-0.049287954347064726,2-acetyl-1-naphthol,711-79-5,69733,No,10.1016/0378-3812(90)85008-X
CC(=O)c1ccc2ccccc2c1O,342.25,ethanol,CCO,0.0696,1.212357113977994,0.08363056519795344,2-acetyl-1-naphthol,711-79-5,69733,No,10.1016/0378-3812(90)85008-X
COc1ccc(-c2cc(=O)c3c(O)cc(O[C@@H]4O[C@H](CO[C@@H]5O[C@@H](C)[C@H](O)[C@@H](O)[C@H]5O)[C@@H](O)[C@H](O)[C@H]4O)cc3o2)cc1O,298.15,ethanol,CCO,2.57e-06,4.381602135275216e-05,-4.358367060435575,Diosmin,520-27-4,5281613,Yes,10.1016/j.cjche.2014.03.006
COc1ccc(-c2cc(=O)c3c(O)cc(O[C@@H]4O[C@H](CO[C@@H]5O[C@@H](C)[C@H](O)[C@@H](O)[C@H]5O)[C@@H](O)[C@H](O)[C@H]4O)cc3o2)cc1O,303.15,ethanol,CCO,3.78e-06,6.407374064671985e-05,-4.1933199210088015,Diosmin,520-27-4,5281613,Yes,10.1016/j.cjche.2014.03.006
COc1ccc(-c2cc(=O)c3c(O)cc(O[C@@H]4O[C@H](CO[C@@H]5O[C@@H](C)[C@H](O)[C@@H](O)[C@H]5O)[C@@H](O)[C@H](O)[C@H]4O)cc3o2)cc1O,313.15,ethanol,CCO,6.81e-06,0.00011414380191283547,-3.9425476660233802,Diosmin,520-27-4,5281613,Yes,10.1016/j.cjche.2014.03.006
COc1ccc(-c2cc(=O)c3c(O)cc(O[C@@H]4O[C@H](CO[C@@H]5O[C@@H](C)[C@H](O)[C@@H](O)[C@H]5O)[C@@H](O)[C@H](O)[C@H]4O)cc3o2)cc1O,323.15,ethanol,CCO,1.21e-05,0.00020045652698048733,-3.6979797983036566,Diosmin,520-27-4,5281613,Yes,10.1016/j.cjche.2014.03.006
COc1ccc(-c2cc(=O)c3c(O)cc(O[C@@H]4O[C@H](CO[C@@H]5O[C@@H](C)[C@H](O)[C@@H](O)[C@H]5O)[C@@H](O)[C@H](O)[C@H]4O)cc3o2)cc1O,333.15,ethanol,CCO,1.96e-05,0.00032096485306788497,-3.4935425219701552,Diosmin,520-27-4,5281613,Yes,10.1016/j.cjche.2014.03.006
Nc1cccc(N)c1,278.15,ethanol,CCO,0.1072,2.0919386858208195,0.3205489513233855,m-phenylenediamine,108-45-2,7935,No,10.1016/j.cjche.2018.11.005
Nc1cccc(N)c1,280.65,ethanol,CCO,0.1216,2.4052816069656853,0.3811659302697704,m-phenylenediamine,108-45-2,7935,No,10.1016/j.cjche.2018.11.005
Nc1cccc(N)c1,283.15,ethanol,CCO,0.1362,2.7298593267974756,0.43614026785771676,m-phenylenediamine,108-45-2,7935,No,10.1016/j.cjche.2018.11.005
Nc1cccc(N)c1,285.65,ethanol,CCO,0.1559,3.1915367140474733,0.5039998447290123,m-phenylenediamine,108-45-2,7935,No,10.1016/j.cjche.2018.11.005
Nc1cccc(N)c1,288.15,ethanol,CCO,0.1749,3.650159913707661,0.5623118913385293,m-phenylenediamine,108-45-2,7935,No,10.1016/j.cjche.2018.11.005
Nc1cccc(N)c1,290.65,ethanol,CCO,0.1962,4.1947733118282216,0.6227084962535863,m-phenylenediamine,108-45-2,7935,No,10.1016/j.cjche.2018.11.005
Nc1cccc(N)c1,293.15,ethanol,CCO,0.2208,4.856472990719259,0.686320977749213,m-phenylenediamine,108-45-2,7935,No,10.1016/j.cjche.2018.11.005
Nc1cccc(N)c1,295.65,ethanol,CCO,0.2481,5.639243048480765,0.7512208128609766,m-phenylenediamine,108-45-2,7935,No,10.1016/j.cjche.2018.11.005
Nc1cccc(N)c1,298.15,ethanol,CCO,0.2767,6.522129146460281,0.8143893941387133,m-phenylenediamine,108-45-2,7935,No,10.1016/j.cjche.2018.11.005
Nc1cccc(N)c1,300.65,ethanol,CCO,0.3092,7.607195088580049,0.8812245539975431,m-phenylenediamine,108-45-2,7935,No,10.1016/j.cjche.2018.11.005
Nc1cccc(N)c1,303.15,ethanol,CCO,0.3438,8.880885766218357,0.9484562838187338,m-phenylenediamine,108-45-2,7935,No,10.1016/j.cjche.2018.11.005
Nc1cccc(N)c1,305.65,ethanol,CCO,0.3812,10.411414213172765,1.0175097250208145,m-phenylenediamine,108-45-2,7935,No,10.1016/j.cjche.2018.11.005
Nc1cccc(N)c1,308.15,ethanol,CCO,0.4262,12.517847109796612,1.0975296428733599,m-phenylenediamine,108-45-2,7935,No,10.1016/j.cjche.2018.11.005
Nc1cccc(N)c1,310.65,ethanol,CCO,0.4794,15.475941109586008,1.1896570684367431,m-phenylenediamine,108-45-2,7935,No,10.1016/j.cjche.2018.11.005
Nc1cccc(N)c1,313.15,ethanol,CCO,0.5356,19.33083535141183,1.2862506217817775,m-phenylenediamine,108-45-2,7935,No,10.1016/j.cjche.2018.11.005
O=[N+]([O-])c1c[nH]cn1,278.15,ethanol,CCO,0.0031,0.05417743570340972,-1.266181554603963,4-nitroimidazole,3034-38-6,18208,No,10.1016/j.cjche.2020.07.022
O=[N+]([O-])c1c[nH]cn1,281.15,ethanol,CCO,0.00322,0.05609757889629872,-1.2510558819642912,4-nitroimidazole,3034-38-6,18208,No,10.1016/j.cjche.2020.07.022
O=[N+]([O-])c1c[nH]cn1,284.15,ethanol,CCO,0.00335,0.058178731602209564,-1.2352357513626968,4-nitroimidazole,3034-38-6,18208,No,10.1016/j.cjche.2020.07.022
O=[N+]([O-])c1c[nH]cn1,287.15,ethanol,CCO,0.0035099999999999997,0.060766768425964075,-1.2163338587997765,4-nitroimidazole,3034-38-6,18208,No,10.1016/j.cjche.2020.07.022
O=[N+]([O-])c1c[nH]cn1,290.15,ethanol,CCO,0.0037099999999999998,0.06403025622861762,-1.1936147602646645,4-nitroimidazole,3034-38-6,18208,No,10.1016/j.cjche.2020.07.022
O=[N+]([O-])c1c[nH]cn1,293.15,ethanol,CCO,0.00393,0.06761974721283266,-1.1699264571176777,4-nitroimidazole,3034-38-6,18208,No,10.1016/j.cjche.2020.07.022
O=[N+]([O-])c1c[nH]cn1,296.15,ethanol,CCO,0.0041600000000000005,0.07135375422130243,-1.1465831718877695,4-nitroimidazole,3034-38-6,18208,No,10.1016/j.cjche.2020.07.022
O=[N+]([O-])c1c[nH]cn1,299.15,ethanol,CCO,0.00439,0.07506527875757345,-1.1245608982939,4-nitroimidazole,3034-38-6,18208,No,10.1016/j.cjche.2020.07.022
O=[N+]([O-])c1c[nH]cn1,302.15,ethanol,CCO,0.00467,0.07960851687473501,-1.099040467013152,4-nitroimidazole,3034-38-6,18208,No,10.1016/j.cjche.2020.07.022
O=[N+]([O-])c1c[nH]cn1,305.15,ethanol,CCO,0.004940000000000001,0.08395149942013409,-1.0759715427174161,4-nitroimidazole,3034-38-6,18208,No,10.1016/j.cjche.2020.07.022
O=[N+]([O-])c1c[nH]cn1,308.15,ethanol,CCO,0.00526,0.08911542930885158,-1.0500470963719726,4-nitroimidazole,3034-38-6,18208,No,10.1016/j.cjche.2020.07.022
O=[N+]([O-])c1c[nH]cn1,311.15,ethanol,CCO,0.00557,0.09408037252094449,-1.02650097163071,4-nitroimidazole,3034-38-6,18208,No,10.1016/j.cjche.2020.07.022
O=[N+]([O-])c1c[nH]cn1,314.15,ethanol,CCO,0.00594,0.1000271912443884,-0.9998819259782309,4-nitroimidazole,3034-38-6,18208,No,10.1016/j.cjche.2020.07.022
O=[N+]([O-])c1c[nH]cn1,317.15,ethanol,CCO,0.00634,0.10644293378625032,-0.9728831639062495,4-nitroimidazole,3034-38-6,18208,No,10.1016/j.cjche.2020.07.022
O=[N+]([O-])c1c[nH]cn1,320.15,ethanol,CCO,0.0067800000000000004,0.1134921252664023,-0.9450342712637498,4-nitroimidazole,3034-38-6,18208,No,10.1016/j.cjche.2020.07.022
O=[N+]([O-])c1c[nH]cn1,323.15,ethanol,CCO,0.00724,0.12081583845097504,-0.9178761277929833,4-nitroimidazole,3034-38-6,18208,No,10.1016/j.cjche.2020.07.022
COc1cc(NS(=O)(=O)c2ccc(N)cc2)ncn1,297.95,ethanol,CCO,0.000496,0.008459432803563805,-2.0726587549917457,Sulfamonomethoxine,1220-83-3,5332,No,10.1016/j.cjche.2020.10.037
COc1cc(NS(=O)(=O)c2ccc(N)cc2)ncn1,310.95,ethanol,CCO,0.000859,0.014443834754951344,-1.8403174887735485,Sulfamonomethoxine,1220-83-3,5332,No,10.1016/j.cjche.2020.10.037
COc1cc(NS(=O)(=O)c2ccc(N)cc2)ncn1,317.65,ethanol,CCO,0.001094,0.01826043512441375,-1.7384888779583285,Sulfamonomethoxine,1220-83-3,5332,No,10.1016/j.cjche.2020.10.037
COc1cc(NS(=O)(=O)c2ccc(N)cc2)ncn1,327.95,ethanol,CCO,0.001614,0.026638177925850534,-1.5744954845997652,Sulfamonomethoxine,1220-83-3,5332,No,10.1016/j.cjche.2020.10.037
COc1cc(NS(=O)(=O)c2ccc(N)cc2)ncn1,337.85,ethanol,CCO,0.002426,0.03961571095586772,-1.4021325456836369,Sulfamonomethoxine,1220-83-3,5332,No,10.1016/j.cjche.2020.10.037
COc1cc(NS(=O)(=O)c2ccc(N)cc2)ncn1,347.15,ethanol,CCO,0.003557,0.05752076125665742,-1.240175374930843,Sulfamonomethoxine,1220-83-3,5332,No,10.1016/j.cjche.2020.10.037
O=C(OCCO)c1ccc(C(=O)OCCO)cc1,283.15,ethanol,CCO,0.0005769999999999999,0.009995461101344607,-2.000197166613345,bis-2-hydroxyethyl terephthalate (BHET),959-26-2,13739,No,10.1016/j.cjche.2021.03.024
O=C(OCCO)c1ccc(C(=O)OCCO)cc1,288.15,ethanol,CCO,0.000802,0.013821382345723906,-1.8594485188216459,bis-2-hydroxyethyl terephthalate (BHET),959-26-2,13739,No,10.1016/j.cjche.2021.03.024
O=C(OCCO)c1ccc(C(=O)OCCO)cc1,293.15,ethanol,CCO,0.001126,0.019319617963281688,-1.7140014658128184,bis-2-hydroxyethyl terephthalate (BHET),959-26-2,13739,No,10.1016/j.cjche.2021.03.024
O=C(OCCO)c1ccc(C(=O)OCCO)cc1,298.15,ethanol,CCO,0.001408,0.024038827024003416,-1.619086727577411,bis-2-hydroxyethyl terephthalate (BHET),959-26-2,13739,No,10.1016/j.cjche.2021.03.024
O=C(OCCO)c1ccc(C(=O)OCCO)cc1,303.15,ethanol,CCO,0.0016870000000000001,0.02864408762390158,-1.5429650064119405,bis-2-hydroxyethyl terephthalate (BHET),959-26-2,13739,No,10.1016/j.cjche.2021.03.024
O=C(OCCO)c1ccc(C(=O)OCCO)cc1,308.15,ethanol,CCO,0.0024920000000000003,0.04210254919508696,-1.3756916080160444,bis-2-hydroxyethyl terephthalate (BHET),959-26-2,13739,No,10.1016/j.cjche.2021.03.024
O=C(OCCO)c1ccc(C(=O)OCCO)cc1,313.15,ethanol,CCO,0.003152,0.052998006179332195,-1.2757404685426392,bis-2-hydroxyethyl terephthalate (BHET),959-26-2,13739,No,10.1016/j.cjche.2021.03.024
O=C(OCCO)c1ccc(C(=O)OCCO)cc1,318.15,ethanol,CCO,0.003949,0.06606326395482155,-1.1800399731430862,bis-2-hydroxyethyl terephthalate (BHET),959-26-2,13739,No,10.1016/j.cjche.2021.03.024
O=C(OCCO)c1ccc(C(=O)OCCO)cc1,323.15,ethanol,CCO,0.005209,0.08674652500303545,-1.061747913680997,bis-2-hydroxyethyl terephthalate (BHET),959-26-2,13739,No,10.1016/j.cjche.2021.03.024
O=C(OCCO)c1ccc(C(=O)OCCO)cc1,328.15,ethanol,CCO,0.006555,0.10865079809333406,-0.9639670792260335,bis-2-hydroxyethyl terephthalate (BHET),959-26-2,13739,No,10.1016/j.cjche.2021.03.024
O=[N+]([O-])c1cc([N+](=O)[O-])c(Cl)c(Cl)c1Cl,278.15,ethanol,CCO,0.0023510000000000002,0.04105662113873791,-1.3866167948870585,"2,3,4-trichloro-1,5-dinitrobenzene",6379-46-0,22875,No,10.1016/j.cjche.2022.10.022
O=[N+]([O-])c1cc([N+](=O)[O-])c(Cl)c(Cl)c1Cl,283.15,ethanol,CCO,0.0030120000000000004,0.05230478201297397,-1.2814586035436755,"2,3,4-trichloro-1,5-dinitrobenzene",6379-46-0,22875,No,10.1016/j.cjche.2022.10.022
O=[N+]([O-])c1cc([N+](=O)[O-])c(Cl)c(Cl)c1Cl,288.15,ethanol,CCO,0.0038179999999999998,0.06599725961409125,-1.1804740971730847,"2,3,4-trichloro-1,5-dinitrobenzene",6379-46-0,22875,No,10.1016/j.cjche.2022.10.022
O=[N+]([O-])c1cc([N+](=O)[O-])c(Cl)c(Cl)c1Cl,293.15,ethanol,CCO,0.0048270000000000006,0.08312842777929871,-1.0802504332985614,"2,3,4-trichloro-1,5-dinitrobenzene",6379-46-0,22875,No,10.1016/j.cjche.2022.10.022
O=[N+]([O-])c1cc([N+](=O)[O-])c(Cl)c(Cl)c1Cl,298.15,ethanol,CCO,0.0061070000000000004,0.10475794929018303,-0.9798130117805456,"2,3,4-trichloro-1,5-dinitrobenzene",6379-46-0,22875,No,10.1016/j.cjche.2022.10.022
O=[N+]([O-])c1cc([N+](=O)[O-])c(Cl)c(Cl)c1Cl,303.15,ethanol,CCO,0.0076500000000000005,0.13067219870289423,-0.8838168013577455,"2,3,4-trichloro-1,5-dinitrobenzene",6379-46-0,22875,No,10.1016/j.cjche.2022.10.022
O=[N+]([O-])c1cc([N+](=O)[O-])c(Cl)c(Cl)c1Cl,308.15,ethanol,CCO,0.009565,0.16275552365050827,-0.7884642632806426,"2,3,4-trichloro-1,5-dinitrobenzene",6379-46-0,22875,No,10.1016/j.cjche.2022.10.022
O=[N+]([O-])c1cc([N+](=O)[O-])c(Cl)c(Cl)c1Cl,313.15,ethanol,CCO,0.01183,0.20065747557803099,-0.6975446558064924,"2,3,4-trichloro-1,5-dinitrobenzene",6379-46-0,22875,No,10.1016/j.cjche.2022.10.022
O=[N+]([O-])c1cc([N+](=O)[O-])c(Cl)c(Cl)c1Cl,318.15,ethanol,CCO,0.014610000000000001,0.2470566420408573,-0.6072034657457575,"2,3,4-trichloro-1,5-dinitrobenzene",6379-46-0,22875,No,10.1016/j.cjche.2022.10.022
O=[N+]([O-])c1cc([N+](=O)[O-])c(Cl)c(Cl)c1Cl,323.15,ethanol,CCO,0.01821,0.30727053592389,-0.5124790821098948,"2,3,4-trichloro-1,5-dinitrobenzene",6379-46-0,22875,No,10.1016/j.cjche.2022.10.022
O=C1c2ccccc2-c2ccccc21,278.15,ethanol,CCO,0.0127,0.22411087514324188,-0.6495370684979412,9-fluorenone,486-25-9,10241,No,10.1016/j.cjche.2023.02.024
O=C1c2ccccc2-c2ccccc21,283.15,ethanol,CCO,0.013999999999999999,0.2458258110673305,-0.6093725192705431,9-fluorenone,486-25-9,10241,No,10.1016/j.cjche.2023.02.024
O=C1c2ccccc2-c2ccccc21,288.15,ethanol,CCO,0.016399999999999998,0.28711375357883656,-0.5419460030439733,9-fluorenone,486-25-9,10241,No,10.1016/j.cjche.2023.02.024
O=C1c2ccccc2-c2ccccc21,293.15,ethanol,CCO,0.0222,0.3891112560573885,-0.4099262059145673,9-fluorenone,486-25-9,10241,No,10.1016/j.cjche.2023.02.024
O=C1c2ccccc2-c2ccccc21,298.15,ethanol,CCO,0.026699999999999998,0.467695550380735,-0.33003676191592585,9-fluorenone,486-25-9,10241,No,10.1016/j.cjche.2023.02.024
O=C1c2ccccc2-c2ccccc21,303.15,ethanol,CCO,0.030699999999999998,0.5368671119651044,-0.270133199742391,9-fluorenone,486-25-9,10241,No,10.1016/j.cjche.2023.02.024