SMILES_Solute,Temperature_K,Solvent,SMILES_Solvent,Solubility(mole_fraction),Solubility(mol/L),LogS(mol/L),Compound_Name,CAS,PubChem_CID,FDA_Approved,Source
CC(CO)(CO)C(=O)O,288.15,ethanol,CCO,0.01169,0.20368075232118835,-0.6910500095646475,Dimethylolpropionic acid,4767-03-7,78501,No,10.1016/j.jct.2021.106625
CC(CO)(CO)C(=O)O,293.15,ethanol,CCO,0.013540000000000002,0.2352393860064034,-0.628489962811825,Dimethylolpropionic acid,4767-03-7,78501,No,10.1016/j.jct.2021.106625
CC(CO)(CO)C(=O)O,298.15,ethanol,CCO,0.015529999999999999,0.2689475977569061,-0.570332330488212,Dimethylolpropionic acid,4767-03-7,78501,No,10.1016/j.jct.2021.106625
CC(CO)(CO)C(=O)O,303.15,ethanol,CCO,0.01863,0.32178568101667165,-0.492433285264349,Dimethylolpropionic acid,4767-03-7,78501,No,10.1016/j.jct.2021.106625
CC(CO)(CO)C(=O)O,308.15,ethanol,CCO,0.021400000000000002,0.3685405701061076,-0.43351469666957254,Dimethylolpropionic acid,4767-03-7,78501,No,10.1016/j.jct.2021.106625
CC(CO)(CO)C(=O)O,313.15,ethanol,CCO,0.02541,0.4370035637745969,-0.3595150213331679,Dimethylolpropionic acid,4767-03-7,78501,No,10.1016/j.jct.2021.106625
CC(CO)(CO)C(=O)O,318.15,ethanol,CCO,0.02934,0.5036715789976605,-0.29785255466685756,Dimethylolpropionic acid,4767-03-7,78501,No,10.1016/j.jct.2021.106625
CC(CO)(CO)C(=O)O,323.15,ethanol,CCO,0.03407,0.5843271359878435,-0.23334394470782094,Dimethylolpropionic acid,4767-03-7,78501,No,10.1016/j.jct.2021.106625
CC(CO)(CO)C(=O)O,328.15,ethanol,CCO,0.03858,0.6607742707038758,-0.17994687596139713,Dimethylolpropionic acid,4767-03-7,78501,No,10.1016/j.jct.2021.106625
O=c1cc(CBr)c2ccccc2[nH]1,278.15,ethanol,CCO,0.0001904,0.003317859484407003,-2.4791420108489963,4-(bromomethyl)-2(1H)-quinolinone,4876-10-2,268296,No,10.1016/j.jct.2021.106670
O=c1cc(CBr)c2ccccc2[nH]1,283.15,ethanol,CCO,0.000211,0.0036538478682797675,-2.437249538905223,4-(bromomethyl)-2(1H)-quinolinone,4876-10-2,268296,No,10.1016/j.jct.2021.106670
O=c1cc(CBr)c2ccccc2[nH]1,288.15,ethanol,CCO,0.0002346,0.0040407182969957505,-2.3935414258069896,4-(bromomethyl)-2(1H)-quinolinone,4876-10-2,268296,No,10.1016/j.jct.2021.106670
O=c1cc(CBr)c2ccccc2[nH]1,293.15,ethanol,CCO,0.0002609,0.00447258140516038,-2.3494417461233144,4-(bromomethyl)-2(1H)-quinolinone,4876-10-2,268296,No,10.1016/j.jct.2021.106670
O=c1cc(CBr)c2ccccc2[nH]1,298.15,ethanol,CCO,0.0002855,0.004868877203298474,-2.3125711785455767,4-(bromomethyl)-2(1H)-quinolinone,4876-10-2,268296,No,10.1016/j.jct.2021.106670
O=c1cc(CBr)c2ccccc2[nH]1,303.15,ethanol,CCO,0.0003156,0.005351317476372937,-2.271539282973253,4-(bromomethyl)-2(1H)-quinolinone,4876-10-2,268296,No,10.1016/j.jct.2021.106670
O=c1cc(CBr)c2ccccc2[nH]1,308.15,ethanol,CCO,0.0003469,0.005848328031776225,-2.2329682758595526,4-(bromomethyl)-2(1H)-quinolinone,4876-10-2,268296,No,10.1016/j.jct.2021.106670
O=c1cc(CBr)c2ccccc2[nH]1,313.15,ethanol,CCO,0.0003782,0.006341442665668801,-2.1978119297420395,4-(bromomethyl)-2(1H)-quinolinone,4876-10-2,268296,No,10.1016/j.jct.2021.106670
O=c1cc(CBr)c2ccccc2[nH]1,318.15,ethanol,CCO,0.0004113,0.006856332023948264,-2.1639081594808443,4-(bromomethyl)-2(1H)-quinolinone,4876-10-2,268296,No,10.1016/j.jct.2021.106670
O=C(O)CCCCCCCCCCC(=O)O,288.15,ethanol,CCO,0.007933,0.13769720333256158,-0.8610748802918805,Dodecanedioic acid,693-23-2,12736,No,10.1016/j.jct.2021.106686
O=C(O)CCCCCCCCCCC(=O)O,293.15,ethanol,CCO,0.01048,0.18151292641896738,-0.7410924413026457,Dodecanedioic acid,693-23-2,12736,No,10.1016/j.jct.2021.106686
O=C(O)CCCCCCCCCCC(=O)O,298.15,ethanol,CCO,0.01379,0.23839303591922129,-0.6227064356181665,Dodecanedioic acid,693-23-2,12736,No,10.1016/j.jct.2021.106686
O=C(O)CCCCCCCCCCC(=O)O,303.15,ethanol,CCO,0.01808,0.3121109156026359,-0.505691042282783,Dodecanedioic acid,693-23-2,12736,No,10.1016/j.jct.2021.106686
O=C(O)CCCCCCCCCCC(=O)O,308.15,ethanol,CCO,0.023559999999999998,0.4066366000208615,-0.3907935345230183,Dodecanedioic acid,693-23-2,12736,No,10.1016/j.jct.2021.106686
O=C(O)CCCCCCCCCCC(=O)O,313.15,ethanol,CCO,0.030510000000000002,0.527474098224198,-0.2777988616691143,Dodecanedioic acid,693-23-2,12736,No,10.1016/j.jct.2021.106686
O=C(O)CCCCCCCCCCC(=O)O,318.15,ethanol,CCO,0.0394,0.6834521412171541,-0.1652918915321681,Dodecanedioic acid,693-23-2,12736,No,10.1016/j.jct.2021.106686
O=C(O)CCCCCCCCCCC(=O)O,323.15,ethanol,CCO,0.05064,0.8836745431422187,-0.053707655962852555,Dodecanedioic acid,693-23-2,12736,No,10.1016/j.jct.2021.106686
O=C(O)CCCCCCCCCCC(=O)O,328.15,ethanol,CCO,0.06478,1.1405943368390603,0.05713121094043167,Dodecanedioic acid,693-23-2,12736,No,10.1016/j.jct.2021.106686
O=C1CCc2cc(O)ccc2N1,278.15,ethanol,CCO,0.0021360000000000003,0.03729393770714553,-1.4283617589235114,"6-hydroxy-3,4-dihydro-2(1H)-quinolone",54197-66-9,2774040,No,10.1016/j.jct.2021.106694
O=C1CCc2cc(O)ccc2N1,283.15,ethanol,CCO,0.0024159999999999997,0.041929898871754814,-1.3774761850443644,"6-hydroxy-3,4-dihydro-2(1H)-quinolone",54197-66-9,2774040,No,10.1016/j.jct.2021.106694
O=C1CCc2cc(O)ccc2N1,288.15,ethanol,CCO,0.002813,0.04857600482600629,-1.3135782069736506,"6-hydroxy-3,4-dihydro-2(1H)-quinolone",54197-66-9,2774040,No,10.1016/j.jct.2021.106694
O=C1CCc2cc(O)ccc2N1,293.15,ethanol,CCO,0.003242,0.05574348710467935,-1.2538058669296663,"6-hydroxy-3,4-dihydro-2(1H)-quinolone",54197-66-9,2774040,No,10.1016/j.jct.2021.106694
O=C1CCc2cc(O)ccc2N1,298.15,ethanol,CCO,0.003725,0.06374494411030324,-1.1955542553186531,"6-hydroxy-3,4-dihydro-2(1H)-quinolone",54197-66-9,2774040,No,10.1016/j.jct.2021.106694
O=C1CCc2cc(O)ccc2N1,303.15,ethanol,CCO,0.004314,0.07344198010550493,-1.1340556224209,"6-hydroxy-3,4-dihydro-2(1H)-quinolone",54197-66-9,2774040,No,10.1016/j.jct.2021.106694
O=C1CCc2cc(O)ccc2N1,308.15,ethanol,CCO,0.004959,0.08399044335866447,-1.0757701262322827,"6-hydroxy-3,4-dihydro-2(1H)-quinolone",54197-66-9,2774040,No,10.1016/j.jct.2021.106694
O=C1CCc2cc(O)ccc2N1,313.15,ethanol,CCO,0.005736,0.09669626343351145,-1.0145903077325167,"6-hydroxy-3,4-dihydro-2(1H)-quinolone",54197-66-9,2774040,No,10.1016/j.jct.2021.106694
O=C1CCc2cc(O)ccc2N1,318.15,ethanol,CCO,0.006642,0.11141599587094395,-0.9530524535089718,"6-hydroxy-3,4-dihydro-2(1H)-quinolone",54197-66-9,2774040,No,10.1016/j.jct.2021.106694
O=C1CCc2cc(O)ccc2N1,323.15,ethanol,CCO,0.007613000000000001,0.12708793985707548,-0.895895660319568,"6-hydroxy-3,4-dihydro-2(1H)-quinolone",54197-66-9,2774040,No,10.1016/j.jct.2021.106694
Nc1nc2ccc(OC(F)(F)F)cc2s1,278.15,ethanol,CCO,0.1794,3.8088973945498616,0.5807992736373172,Riluzole,1744-22-5,5070,Yes,10.1016/j.jct.2021.106714
Nc1nc2ccc(OC(F)(F)F)cc2s1,283.15,ethanol,CCO,0.1883,4.016346136049793,0.6038311340419894,Riluzole,1744-22-5,5070,Yes,10.1016/j.jct.2021.106714
Nc1nc2ccc(OC(F)(F)F)cc2s1,288.15,ethanol,CCO,0.1978,4.2459248051383405,0.627972298590541,Riluzole,1744-22-5,5070,Yes,10.1016/j.jct.2021.106714
Nc1nc2ccc(OC(F)(F)F)cc2s1,293.15,ethanol,CCO,0.2117,4.602567686011865,0.6630001840191387,Riluzole,1744-22-5,5070,Yes,10.1016/j.jct.2021.106714
Nc1nc2ccc(OC(F)(F)F)cc2s1,298.15,ethanol,CCO,0.2225,4.878971909813178,0.6883283177129527,Riluzole,1744-22-5,5070,Yes,10.1016/j.jct.2021.106714
Nc1nc2ccc(OC(F)(F)F)cc2s1,303.15,ethanol,CCO,0.2363,5.244783535481231,0.7197275685474993,Riluzole,1744-22-5,5070,Yes,10.1016/j.jct.2021.106714
Nc1nc2ccc(OC(F)(F)F)cc2s1,308.15,ethanol,CCO,0.2545,5.753298143066216,0.7599168802889202,Riluzole,1744-22-5,5070,Yes,10.1016/j.jct.2021.106714
Nc1nc2ccc(OC(F)(F)F)cc2s1,313.15,ethanol,CCO,0.2726,6.281376411591305,0.7980548192883041,Riluzole,1744-22-5,5070,Yes,10.1016/j.jct.2021.106714
Nc1nc2ccc(OC(F)(F)F)cc2s1,318.15,ethanol,CCO,0.294,6.9390033683309245,0.8412970983055548,Riluzole,1744-22-5,5070,Yes,10.1016/j.jct.2021.106714
Nc1nc2ccc(OC(F)(F)F)cc2s1,323.15,ethanol,CCO,0.3079,7.370049691674961,0.8674704160473118,Riluzole,1744-22-5,5070,Yes,10.1016/j.jct.2021.106714
CNC(=O)c1cc(Oc2ccc(NC(=O)Nc3ccc(Cl)c(C(F)(F)F)c3)c(F)c2)ccn1,278.15,ethanol,CCO,0.000641,0.011174930970558383,-1.9517551508983235,Regorafenib,755037-03-7,11167602,Yes,10.1016/j.jct.2021.106720
CNC(=O)c1cc(Oc2ccc(NC(=O)Nc3ccc(Cl)c(C(F)(F)F)c3)c(F)c2)ccn1,283.15,ethanol,CCO,0.0006770000000000001,0.011728950289008992,-1.9307408543883573,Regorafenib,755037-03-7,11167602,Yes,10.1016/j.jct.2021.106720
CNC(=O)c1cc(Oc2ccc(NC(=O)Nc3ccc(Cl)c(C(F)(F)F)c3)c(F)c2)ccn1,288.15,ethanol,CCO,0.000739,0.012734859844772007,-1.8950058303609139,Regorafenib,755037-03-7,11167602,Yes,10.1016/j.jct.2021.106720
CNC(=O)c1cc(Oc2ccc(NC(=O)Nc3ccc(Cl)c(C(F)(F)F)c3)c(F)c2)ccn1,293.15,ethanol,CCO,0.000865,0.014837570220744145,-1.8286372126769794,Regorafenib,755037-03-7,11167602,Yes,10.1016/j.jct.2021.106720
CNC(=O)c1cc(Oc2ccc(NC(=O)Nc3ccc(Cl)c(C(F)(F)F)c3)c(F)c2)ccn1,298.15,ethanol,CCO,0.000911,0.015545793683890734,-1.8083871003345298,Regorafenib,755037-03-7,11167602,Yes,10.1016/j.jct.2021.106720
CNC(=O)c1cc(Oc2ccc(NC(=O)Nc3ccc(Cl)c(C(F)(F)F)c3)c(F)c2)ccn1,303.15,ethanol,CCO,0.0011020000000000001,0.018700236043631777,-1.728152911549074,Regorafenib,755037-03-7,11167602,Yes,10.1016/j.jct.2021.106720
CNC(=O)c1cc(Oc2ccc(NC(=O)Nc3ccc(Cl)c(C(F)(F)F)c3)c(F)c2)ccn1,308.15,ethanol,CCO,0.00126,0.021261546108908184,-1.6724051573972651,Regorafenib,755037-03-7,11167602,Yes,10.1016/j.jct.2021.106720
CNC(=O)c1cc(Oc2ccc(NC(=O)Nc3ccc(Cl)c(C(F)(F)F)c3)c(F)c2)ccn1,313.15,ethanol,CCO,0.001453,0.024389301786835498,-1.612800632423658,Regorafenib,755037-03-7,11167602,Yes,10.1016/j.jct.2021.106720
CC(=O)c1c(C)c([N+](=O)[O-])c(C(C)(C)C)c([N+](=O)[O-])c1C,278.15,ethanol,CCO,0.001973,0.034442379069657546,-1.4629068577660207,Musk ketone,81-14-1,6669,No,10.1016/j.jct.2022.106727
CC(=O)c1c(C)c([N+](=O)[O-])c(C(C)(C)C)c([N+](=O)[O-])c1C,283.15,ethanol,CCO,0.002425,0.04208647438270239,-1.3758574539209951,Musk ketone,81-14-1,6669,No,10.1016/j.jct.2022.106727
CC(=O)c1c(C)c([N+](=O)[O-])c(C(C)(C)C)c([N+](=O)[O-])c1C,288.15,ethanol,CCO,0.003005,0.05190153053220854,-1.2848198349859987,Musk ketone,81-14-1,6669,No,10.1016/j.jct.2022.106727
CC(=O)c1c(C)c([N+](=O)[O-])c(C(C)(C)C)c([N+](=O)[O-])c1C,293.15,ethanol,CCO,0.0036710000000000002,0.06314696260064251,-1.1996475343803066,Musk ketone,81-14-1,6669,No,10.1016/j.jct.2022.106727
CC(=O)c1c(C)c([N+](=O)[O-])c(C(C)(C)C)c([N+](=O)[O-])c1C,298.15,ethanol,CCO,0.004438,0.07600071647656031,-1.119182313504079,Musk ketone,81-14-1,6669,No,10.1016/j.jct.2022.106727
CC(=O)c1c(C)c([N+](=O)[O-])c(C(C)(C)C)c([N+](=O)[O-])c1C,303.15,ethanol,CCO,0.005313,0.0905399001971865,-1.0431599885665792,Musk ketone,81-14-1,6669,No,10.1016/j.jct.2022.106727
CC(=O)c1c(C)c([N+](=O)[O-])c(C(C)(C)C)c([N+](=O)[O-])c1C,308.15,ethanol,CCO,0.006331,0.10737602282789976,-0.969092686197748,Musk ketone,81-14-1,6669,No,10.1016/j.jct.2022.106727
CC(=O)c1c(C)c([N+](=O)[O-])c(C(C)(C)C)c([N+](=O)[O-])c1C,313.15,ethanol,CCO,0.007532,0.12720262190125523,-0.8955039369147123,Musk ketone,81-14-1,6669,No,10.1016/j.jct.2022.106727
CC(=O)c1c(C)c([N+](=O)[O-])c(C(C)(C)C)c([N+](=O)[O-])c1C,318.15,ethanol,CCO,0.008923,0.15002304097305666,-0.8238420356176651,Musk ketone,81-14-1,6669,No,10.1016/j.jct.2022.106727
O=C(O)c1ccccc1Nc1ccccc1,283.15,ethanol,CCO,0.010096,0.17657638555255778,-0.7530673772587609,N-phenylanthranilic acid,91-40-7,4386,No,10.1016/j.jct.2022.106748
O=C(O)c1ccccc1Nc1ccccc1,285.65,ethanol,CCO,0.010669,0.1863501417025804,-0.7296702726679878,N-phenylanthranilic acid,91-40-7,4386,No,10.1016/j.jct.2022.106748
O=C(O)c1ccccc1Nc1ccccc1,288.15,ethanol,CCO,0.01117,0.19451818478163307,-0.7110397918644943,N-phenylanthranilic acid,91-40-7,4386,No,10.1016/j.jct.2022.106748
O=C(O)c1ccccc1Nc1ccccc1,290.65,ethanol,CCO,0.011183,0.19435686966621665,-0.711400104348878,N-phenylanthranilic acid,91-40-7,4386,No,10.1016/j.jct.2022.106748
O=C(O)c1ccccc1Nc1ccccc1,293.15,ethanol,CCO,0.012327999999999999,0.21391967807690365,-0.6697492636419708,N-phenylanthranilic acid,91-40-7,4386,No,10.1016/j.jct.2022.106748
O=C(O)c1ccccc1Nc1ccccc1,295.65,ethanol,CCO,0.013101,0.22687459710615307,-0.6442141288582911,N-phenylanthranilic acid,91-40-7,4386,No,10.1016/j.jct.2022.106748
O=C(O)c1ccccc1Nc1ccccc1,298.15,ethanol,CCO,0.013614999999999999,0.2353259856964378,-0.6283301135317771,N-phenylanthranilic acid,91-40-7,4386,No,10.1016/j.jct.2022.106748
O=C(O)c1ccccc1Nc1ccccc1,300.65,ethanol,CCO,0.014409,0.24847031465275968,-0.6047254900397003,N-phenylanthranilic acid,91-40-7,4386,No,10.1016/j.jct.2022.106748
O=C(O)c1ccccc1Nc1ccccc1,303.15,ethanol,CCO,0.015406,0.2652279851674213,-0.576380653862409,N-phenylanthranilic acid,91-40-7,4386,No,10.1016/j.jct.2022.106748
O=C(O)c1ccccc1Nc1ccccc1,305.65,ethanol,CCO,0.016279,0.2796809709406783,-0.5533370813460096,N-phenylanthranilic acid,91-40-7,4386,No,10.1016/j.jct.2022.106748
O=C(O)c1ccccc1Nc1ccccc1,308.15,ethanol,CCO,0.017499,0.3001628715638054,-0.5226430285224123,N-phenylanthranilic acid,91-40-7,4386,No,10.1016/j.jct.2022.106748
O=C(O)c1ccccc1Nc1ccccc1,310.65,ethanol,CCO,0.018741,0.32097581488372284,-0.49352768989495543,N-phenylanthranilic acid,91-40-7,4386,No,10.1016/j.jct.2022.106748
O=C(O)c1ccccc1Nc1ccccc1,313.15,ethanol,CCO,0.020016,0.3423423060148715,-0.4655394282547717,N-phenylanthranilic acid,91-40-7,4386,No,10.1016/j.jct.2022.106748
O=C(O)c1ccccc1Nc1ccccc1,315.65,ethanol,CCO,0.02205,0.37678827420808275,-0.4239026210754559,N-phenylanthranilic acid,91-40-7,4386,No,10.1016/j.jct.2022.106748
O=C(O)c1ccccc1Nc1ccccc1,318.15,ethanol,CCO,0.024190999999999997,0.41308884838992144,-0.38395652893552235,N-phenylanthranilic acid,91-40-7,4386,No,10.1016/j.jct.2022.106748
CCS(=O)(=O)CCn1c([N+](=O)[O-])cnc1C,278.15,ethanol,CCO,0.000263,0.004583300481145177,-2.338821669478872,Tinidazole,19387-91-8,5479,Yes,10.1016/j.jct.2022.106767
CCS(=O)(=O)CCn1c([N+](=O)[O-])cnc1C,283.15,ethanol,CCO,0.000375,0.006494870836717017,-2.1874294813051702,Tinidazole,19387-91-8,5479,Yes,10.1016/j.jct.2022.106767
CCS(=O)(=O)CCn1c([N+](=O)[O-])cnc1C,288.15,ethanol,CCO,0.000479,0.008252247775565522,-2.0834277407152006,Tinidazole,19387-91-8,5479,Yes,10.1016/j.jct.2022.106767
CCS(=O)(=O)CCn1c([N+](=O)[O-])cnc1C,293.15,ethanol,CCO,0.000665,0.011404635244824662,-1.9429186002332866,Tinidazole,19387-91-8,5479,Yes,10.1016/j.jct.2022.106767
CCS(=O)(=O)CCn1c([N+](=O)[O-])cnc1C,298.15,ethanol,CCO,0.0008359999999999999,0.01426488252790329,-1.8457318004312613,Tinidazole,19387-91-8,5479,Yes,10.1016/j.jct.2022.106767
CCS(=O)(=O)CCn1c([N+](=O)[O-])cnc1C,303.15,ethanol,CCO,0.001202,0.020399214335650555,-1.6903865588614668,Tinidazole,19387-91-8,5479,Yes,10.1016/j.jct.2022.106767
CCS(=O)(=O)CCn1c([N+](=O)[O-])cnc1C,308.15,ethanol,CCO,0.001604,0.027075611442293743,-1.5674217270196957,Tinidazole,19387-91-8,5479,Yes,10.1016/j.jct.2022.106767
CCS(=O)(=O)CCn1c([N+](=O)[O-])cnc1C,313.15,ethanol,CCO,0.002067,0.034716933445463546,-1.4594586431306396,Tinidazole,19387-91-8,5479,Yes,10.1016/j.jct.2022.106767
CCS(=O)(=O)CCn1c([N+](=O)[O-])cnc1C,318.15,ethanol,CCO,0.002768,0.04625134308643618,-1.3348756513236781,Tinidazole,19387-91-8,5479,Yes,10.1016/j.jct.2022.106767
CCS(=O)(=O)CCn1c([N+](=O)[O-])cnc1C,323.15,ethanol,CCO,0.00377,0.06269188248714563,-1.202788689141662,Tinidazole,19387-91-8,5479,Yes,10.1016/j.jct.2022.106767
Cn1c(=O)c2c(ncn2CC2OCCO2)n(C)c1=O,278.15,ethanol,CCO,0.0005845000000000001,0.010189357086965781,-1.9918532176021726,Doxofylline,69975-86-6,50942,No,10.1016/j.jct.2022.106792
Cn1c(=O)c2c(ncn2CC2OCCO2)n(C)c1=O,283.15,ethanol,CCO,0.0007786,0.013490530643306393,-1.8699709672348903,Doxofylline,69975-86-6,50942,No,10.1016/j.jct.2022.106792
Cn1c(=O)c2c(ncn2CC2OCCO2)n(C)c1=O,288.15,ethanol,CCO,0.001067,0.0183931760626084,-1.7353432719925892,Doxofylline,69975-86-6,50942,No,10.1016/j.jct.2022.106792
Cn1c(=O)c2c(ncn2CC2OCCO2)n(C)c1=O,293.15,ethanol,CCO,0.001426,0.02447429125295627,-1.611289876006416,Doxofylline,69975-86-6,50942,No,10.1016/j.jct.2022.106792
Cn1c(=O)c2c(ncn2CC2OCCO2)n(C)c1=O,298.15,ethanol,CCO,0.0019010000000000001,0.0324718622885539,-1.4884928035067342,Doxofylline,69975-86-6,50942,No,10.1016/j.jct.2022.106792
Cn1c(=O)c2c(ncn2CC2OCCO2)n(C)c1=O,303.15,ethanol,CCO,0.0025139999999999997,0.04272136317321381,-1.3693548980871935,Doxofylline,69975-86-6,50942,No,10.1016/j.jct.2022.106792
Cn1c(=O)c2c(ncn2CC2OCCO2)n(C)c1=O,308.15,ethanol,CCO,0.003245,0.05486596469020667,-1.2606969803401296,Doxofylline,69975-86-6,50942,No,10.1016/j.jct.2022.106792
Cn1c(=O)c2c(ncn2CC2OCCO2)n(C)c1=O,313.15,ethanol,CCO,0.004163,0.07006811225659965,-1.1544795829143846,Doxofylline,69975-86-6,50942,No,10.1016/j.jct.2022.106792
Cn1c(=O)c2c(ncn2CC2OCCO2)n(C)c1=O,318.15,ethanol,CCO,0.005282,0.08848158404261344,-1.0531471110076394,Doxofylline,69975-86-6,50942,No,10.1016/j.jct.2022.106792
Cn1c(=O)c2c(ncn2CC2OCCO2)n(C)c1=O,323.15,ethanol,CCO,0.006782,0.11312088136103154,-0.9464572198065339,Doxofylline,69975-86-6,50942,No,10.1016/j.jct.2022.106792
CC(C)OC(=O)[C@H](C)N[P@](=O)(Oc1ccccc1)Oc1c(F)c(F)c(F)c(F)c1F,278.15,ethanol,CCO,0.001899,0.03314811383414933,-1.4795411784123238,SOV-I2,1334513-02-8,53476763,No,10.1016/j.jct.2022.106794
CC(C)OC(=O)[C@H](C)N[P@](=O)(Oc1ccccc1)Oc1c(F)c(F)c(F)c(F)c1F,283.15,ethanol,CCO,0.002337,0.04055563506041122,-1.391948793595518,SOV-I2,1334513-02-8,53476763,No,10.1016/j.jct.2022.106794
CC(C)OC(=O)[C@H](C)N[P@](=O)(Oc1ccccc1)Oc1c(F)c(F)c(F)c(F)c1F,288.15,ethanol,CCO,0.002932,0.05063698704082451,-1.2955321432448939,SOV-I2,1334513-02-8,53476763,No,10.1016/j.jct.2022.106794
CC(C)OC(=O)[C@H](C)N[P@](=O)(Oc1ccccc1)Oc1c(F)c(F)c(F)c(F)c1F,293.15,ethanol,CCO,0.0036580000000000002,0.06292252118703015,-1.201193884337392,SOV-I2,1334513-02-8,53476763,No,10.1016/j.jct.2022.106794
CC(C)OC(=O)[C@H](C)N[P@](=O)(Oc1ccccc1)Oc1c(F)c(F)c(F)c(F)c1F,298.15,ethanol,CCO,0.004514000000000001,0.0773081175107454,-1.1117749018768828,SOV-I2,1334513-02-8,53476763,No,10.1016/j.jct.2022.106794
CC(C)OC(=O)[C@H](C)N[P@](=O)(Oc1ccccc1)Oc1c(F)c(F)c(F)c(F)c1F,303.15,ethanol,CCO,0.0055569999999999994,0.09472118862812341,-1.0235528607542201,SOV-I2,1334513-02-8,53476763,No,10.1016/j.jct.2022.106794
CC(C)OC(=O)[C@H](C)N[P@](=O)(Oc1ccccc1)Oc1c(F)c(F)c(F)c(F)c1F,308.15,ethanol,CCO,0.006864,0.11647837185665137,-0.9337547085891934,SOV-I2,1334513-02-8,53476763,No,10.1016/j.jct.2022.106794
CC(C)OC(=O)[C@H](C)N[P@](=O)(Oc1ccccc1)Oc1c(F)c(F)c(F)c(F)c1F,313.15,ethanol,CCO,0.008357,0.14125288153928386,-0.8500026838706781,SOV-I2,1334513-02-8,53476763,No,10.1016/j.jct.2022.106794
CC(C)OC(=O)[C@H](C)N[P@](=O)(Oc1ccccc1)Oc1c(F)c(F)c(F)c(F)c1F,318.15,ethanol,CCO,0.01006,0.16933376970657746,-0.7712564232571145,SOV-I2,1334513-02-8,53476763,No,10.1016/j.jct.2022.106794
O=[N+]([O-])c1cc([N+](=O)[O-])c(Cl)c([N+](=O)[O-])c1Cl,298.15,ethanol,CCO,0.002177,0.03719663206377005,-1.4294963811486516,"1,3-dichloro-2,4,6-trinitrobenzene",1630-09-7,3359041,No,10.1016/j.jct.2022.106819
O=[N+]([O-])c1cc([N+](=O)[O-])c(Cl)c([N+](=O)[O-])c1Cl,303.15,ethanol,CCO,0.002654,0.045106767562417396,-1.3457582941637525,"1,3-dichloro-2,4,6-trinitrobenzene",1630-09-7,3359041,No,10.1016/j.jct.2022.106819
O=[N+]([O-])c1cc([N+](=O)[O-])c(Cl)c([N+](=O)[O-])c1Cl,308.15,ethanol,CCO,0.0032229999999999997,0.054492789303969315,-1.2636609614422214,"1,3-dichloro-2,4,6-trinitrobenzene",1630-09-7,3359041,No,10.1016/j.jct.2022.106819
O=[N+]([O-])c1cc([N+](=O)[O-])c(Cl)c([N+](=O)[O-])c1Cl,313.15,ethanol,CCO,0.003919000000000001,0.0659451517342428,-1.1808171281307145,"1,3-dichloro-2,4,6-trinitrobenzene",1630-09-7,3359041,No,10.1016/j.jct.2022.106819
O=[N+]([O-])c1cc([N+](=O)[O-])c(Cl)c([N+](=O)[O-])c1Cl,318.15,ethanol,CCO,0.004759,0.0796786403880425,-1.0986580851893835,"1,3-dichloro-2,4,6-trinitrobenzene",1630-09-7,3359041,No,10.1016/j.jct.2022.106819
O=[N+]([O-])c1cc([N+](=O)[O-])c(Cl)c([N+](=O)[O-])c1Cl,323.15,ethanol,CCO,0.005844,0.09738347006616166,-1.0115147542947918,"1,3-dichloro-2,4,6-trinitrobenzene",1630-09-7,3359041,No,10.1016/j.jct.2022.106819
O=[N+]([O-])c1cc([N+](=O)[O-])c(Cl)c([N+](=O)[O-])c1Cl,328.15,ethanol,CCO,0.007156,0.11868432642083958,-0.9256066306527192,"1,3-dichloro-2,4,6-trinitrobenzene",1630-09-7,3359041,No,10.1016/j.jct.2022.106819