SMILES_Solute,Temperature_K,Solvent,SMILES_Solvent,Solubility(mole_fraction),Solubility(mol/L),LogS(mol/L),Compound_Name,CAS,PubChem_CID,FDA_Approved,Source
COc1cc(/C=C/c2ccc(O)cc2)cc(OC)c1,303.2,ethanol,CCO,0.11699999999999999,2.2455608226915706,0.3513248227483599,Pterostilbene,537-42-8,5281727,No,10.1016/j.molliq.2021.115700
COc1cc(/C=C/c2ccc(O)cc2)cc(OC)c1,308.2,ethanol,CCO,0.124,2.3855033370601846,0.37758002842620053,Pterostilbene,537-42-8,5281727,No,10.1016/j.molliq.2021.115700
COc1cc(/C=C/c2ccc(O)cc2)cc(OC)c1,313.2,ethanol,CCO,0.129,2.481892890284542,0.3947830349539579,Pterostilbene,537-42-8,5281727,No,10.1016/j.molliq.2021.115700
COc1cc(/C=C/c2ccc(O)cc2)cc(OC)c1,318.2,ethanol,CCO,0.136,2.6228397989765853,0.41877176502985153,Pterostilbene,537-42-8,5281727,No,10.1016/j.molliq.2021.115700
CN1CCN(C2=Nc3cc(Cl)ccc3Nc3ccccc32)CC1,283.15,ethanol,CCO,0.0057,0.09925074520198066,-1.0032662237498033,Clozapine,5786-21-0,135398737,Yes,10.1016/j.molliq.2021.115894
CN1CCN(C2=Nc3cc(Cl)ccc3Nc3ccccc32)CC1,288.15,ethanol,CCO,0.005808,0.10059699608625644,-0.9974149874971961,Clozapine,5786-21-0,135398737,Yes,10.1016/j.molliq.2021.115894
CN1CCN(C2=Nc3cc(Cl)ccc3Nc3ccccc32)CC1,293.15,ethanol,CCO,0.006436,0.1110173971123592,-0.95460895925052,Clozapine,5786-21-0,135398737,Yes,10.1016/j.molliq.2021.115894
CN1CCN(C2=Nc3cc(Cl)ccc3Nc3ccccc32)CC1,298.15,ethanol,CCO,0.007018,0.12049546110575277,-0.9190293120422375,Clozapine,5786-21-0,135398737,Yes,10.1016/j.molliq.2021.115894
CN1CCN(C2=Nc3cc(Cl)ccc3Nc3ccccc32)CC1,303.15,ethanol,CCO,0.007669,0.13099925220632377,-0.8827311834556413,Clozapine,5786-21-0,135398737,Yes,10.1016/j.molliq.2021.115894
CN1CCN(C2=Nc3cc(Cl)ccc3Nc3ccccc32)CC1,308.15,ethanol,CCO,0.008372,0.14228436496308153,-0.8468428201076929,Clozapine,5786-21-0,135398737,Yes,10.1016/j.molliq.2021.115894
CN1CCN(C2=Nc3cc(Cl)ccc3Nc3ccccc32)CC1,313.15,ethanol,CCO,0.008895,0.15042795441658813,-0.8226714501755359,Clozapine,5786-21-0,135398737,Yes,10.1016/j.molliq.2021.115894
CN1CCN(C2=Nc3cc(Cl)ccc3Nc3ccccc32)CC1,318.15,ethanol,CCO,0.01033,0.17392595025377477,-0.7596356151725928,Clozapine,5786-21-0,135398737,Yes,10.1016/j.molliq.2021.115894
CN1CCN(C2=Nc3cc(Cl)ccc3Nc3ccccc32)CC1,323.15,ethanol,CCO,0.01124,0.18832370893229836,-0.7250950012244658,Clozapine,5786-21-0,135398737,Yes,10.1016/j.molliq.2021.115894
CN1CCN(C2=Nc3cc(Cl)ccc3Nc3ccccc32)CC1,328.15,ethanol,CCO,0.01283,0.21401231295535572,-0.6695612392922378,Clozapine,5786-21-0,135398737,Yes,10.1016/j.molliq.2021.115894
CN1CCN(C2=Nc3cc(Cl)ccc3Nc3ccccc32)CC1,333.15,ethanol,CCO,0.01584,0.2635617375432543,-0.579117638008095,Clozapine,5786-21-0,135398737,Yes,10.1016/j.molliq.2021.115894
OC(Cn1cncn1)(Cn1cncn1)c1ccc(F)cc1F,293.15,ethanol,CCO,0.0105,0.1818630009157233,-0.7402556469098661,Fluconazole,86386-73-4,3365,Yes,10.1016/j.molliq.2021.115987
OC(Cn1cncn1)(Cn1cncn1)c1ccc(F)cc1F,298.15,ethanol,CCO,0.0123,0.21231406122962262,-0.6730212422343294,Fluconazole,86386-73-4,3365,Yes,10.1016/j.molliq.2021.115987
OC(Cn1cncn1)(Cn1cncn1)c1ccc(F)cc1F,303.15,ethanol,CCO,0.013999999999999999,0.2406787560963872,-0.6185622417452441,Fluconazole,86386-73-4,3365,Yes,10.1016/j.molliq.2021.115987
OC(Cn1cncn1)(Cn1cncn1)c1ccc(F)cc1F,308.15,ethanol,CCO,0.015700000000000002,0.2688121588339567,-0.5705510912913202,Fluconazole,86386-73-4,3365,Yes,10.1016/j.molliq.2021.115987
OC(Cn1cncn1)(Cn1cncn1)c1ccc(F)cc1F,313.15,ethanol,CCO,0.0183,0.3124457080074712,-0.5052254367558117,Fluconazole,86386-73-4,3365,Yes,10.1016/j.molliq.2021.115987
OC(Cn1cncn1)(Cn1cncn1)c1ccc(F)cc1F,318.15,ethanol,CCO,0.023,0.39227238977766715,-0.406412258755979,Fluconazole,86386-73-4,3365,Yes,10.1016/j.molliq.2021.115987
OC(Cn1cncn1)(Cn1cncn1)c1ccc(F)cc1F,323.15,ethanol,CCO,0.0282,0.4807306252071734,-0.3180982100227568,Fluconazole,86386-73-4,3365,Yes,10.1016/j.molliq.2021.115987
O=c1[nH]cc(F)c(=O)[nH]1,293.15,ethanol,CCO,0.00246,0.042264490736643213,-1.3740243596611958,5-fluorouracil,51-21-8,3385,Yes,10.1016/j.molliq.2021.116038
O=c1[nH]cc(F)c(=O)[nH]1,298.15,ethanol,CCO,0.00277,0.04735688566482818,-1.3246168658935087,5-fluorouracil,51-21-8,3385,Yes,10.1016/j.molliq.2021.116038
O=c1[nH]cc(F)c(=O)[nH]1,303.15,ethanol,CCO,0.00307,0.05219877941558341,-1.2823396521562525,5-fluorouracil,51-21-8,3385,Yes,10.1016/j.molliq.2021.116038
O=c1[nH]cc(F)c(=O)[nH]1,308.15,ethanol,CCO,0.0034,0.05749562186573815,-1.2403652243876269,5-fluorouracil,51-21-8,3385,Yes,10.1016/j.molliq.2021.116038
O=c1[nH]cc(F)c(=O)[nH]1,313.15,ethanol,CCO,0.00382,0.06427288717900027,-1.191972190866868,5-fluorouracil,51-21-8,3385,Yes,10.1016/j.molliq.2021.116038
O=c1[nH]cc(F)c(=O)[nH]1,318.15,ethanol,CCO,0.00411,0.06876776651954877,-1.1626150807035958,5-fluorouracil,51-21-8,3385,Yes,10.1016/j.molliq.2021.116038
O=c1[nH]cc(F)c(=O)[nH]1,323.15,ethanol,CCO,0.00455,0.07572190338993864,-1.1207784778915764,5-fluorouracil,51-21-8,3385,Yes,10.1016/j.molliq.2021.116038
CC(=O)N1CCN(c2ccc(OC[C@H]3CO[C@](Cn4ccnc4)(c4ccc(Cl)cc4Cl)O3)cc2)CC1,293.2,ethanol,CCO,0.00275,0.04725655858711069,-1.3255379086250922,Ketoconazole,65277-42-1,456201,No,10.1016/j.molliq.2021.116060
CC(=O)N1CCN(c2ccc(OC[C@H]3CO[C@](Cn4ccnc4)(c4ccc(Cl)cc4Cl)O3)cc2)CC1,298.2,ethanol,CCO,0.0035800000000000003,0.06122994498441037,-1.213036130781117,Ketoconazole,65277-42-1,456201,No,10.1016/j.molliq.2021.116060
CC(=O)N1CCN(c2ccc(OC[C@H]3CO[C@](Cn4ccnc4)(c4ccc(Cl)cc4Cl)O3)cc2)CC1,303.2,ethanol,CCO,0.00434,0.07387174092772111,-1.131521665885018,Ketoconazole,65277-42-1,456201,No,10.1016/j.molliq.2021.116060
CC(=O)N1CCN(c2ccc(OC[C@H]3CO[C@](Cn4ccnc4)(c4ccc(Cl)cc4Cl)O3)cc2)CC1,308.2,ethanol,CCO,0.00561,0.09507548783769763,-1.0219314375211488,Ketoconazole,65277-42-1,456201,No,10.1016/j.molliq.2021.116060
CC(=O)N1CCN(c2ccc(OC[C@H]3CO[C@](Cn4ccnc4)(c4ccc(Cl)cc4Cl)O3)cc2)CC1,313.2,ethanol,CCO,0.00649,0.10946718085078791,-0.9607160663197433,Ketoconazole,65277-42-1,456201,No,10.1016/j.molliq.2021.116060
N#CCNC(=O)c1cnccc1C(F)(F)F,283.15,ethanol,CCO,0.004292000000000001,0.0746283907506424,-1.1270959231880087,Flonicamid,158062-67-0,9834513,No,10.1016/j.molliq.2021.116233
N#CCNC(=O)c1cnccc1C(F)(F)F,288.15,ethanol,CCO,0.0054600000000000004,0.09453639926375967,-1.0244009432818937,Flonicamid,158062-67-0,9834513,No,10.1016/j.molliq.2021.116233
N#CCNC(=O)c1cnccc1C(F)(F)F,293.15,ethanol,CCO,0.006865,0.11846855918479722,-0.9263968934033114,Flonicamid,158062-67-0,9834513,No,10.1016/j.molliq.2021.116233
N#CCNC(=O)c1cnccc1C(F)(F)F,298.15,ethanol,CCO,0.008561,0.14721674071605895,-0.8320428014984118,Flonicamid,158062-67-0,9834513,No,10.1016/j.molliq.2021.116233
N#CCNC(=O)c1cnccc1C(F)(F)F,303.15,ethanol,CCO,0.010669999999999999,0.1828141797957617,-0.7379901216863224,Flonicamid,158062-67-0,9834513,No,10.1016/j.molliq.2021.116233
N#CCNC(=O)c1cnccc1C(F)(F)F,308.15,ethanol,CCO,0.013269999999999999,0.22664666438074632,-0.6446506681856842,Flonicamid,158062-67-0,9834513,No,10.1016/j.molliq.2021.116233
N#CCNC(=O)c1cnccc1C(F)(F)F,313.15,ethanol,CCO,0.01633,0.2782524665396171,-0.5555609772186008,Flonicamid,158062-67-0,9834513,No,10.1016/j.molliq.2021.116233
N#CCNC(=O)c1cnccc1C(F)(F)F,318.15,ethanol,CCO,0.02015,0.34266513796377585,-0.4651300775371882,Flonicamid,158062-67-0,9834513,No,10.1016/j.molliq.2021.116233
N#CCNC(=O)c1cnccc1C(F)(F)F,323.15,ethanol,CCO,0.0246,0.4178129841904374,-0.3790180677672989,Flonicamid,158062-67-0,9834513,No,10.1016/j.molliq.2021.116233
NC(N)=[NH2+].[Cl-],278.15,ethanol,CCO,0.08316,1.5802626507038047,0.19872927573377464,Guanidine hydrochloride,,5460839,No,10.1016/j.molliq.2021.116468
NC(N)=[NH2+].[Cl-],283.15,ethanol,CCO,0.09165,1.7468499780717277,0.24225560876468338,Guanidine hydrochloride,,5460839,No,10.1016/j.molliq.2021.116468
NC(N)=[NH2+].[Cl-],288.15,ethanol,CCO,0.10029999999999999,1.9196934431003023,0.28323188151623696,Guanidine hydrochloride,,5460839,No,10.1016/j.molliq.2021.116468
NC(N)=[NH2+].[Cl-],293.15,ethanol,CCO,0.10769999999999999,2.0685959157487983,0.31567566287459586,Guanidine hydrochloride,,5460839,No,10.1016/j.molliq.2021.116468
NC(N)=[NH2+].[Cl-],298.15,ethanol,CCO,0.11739999999999999,2.2677901983663284,0.3556028738952992,Guanidine hydrochloride,,5460839,No,10.1016/j.molliq.2021.116468
NC(N)=[NH2+].[Cl-],303.15,ethanol,CCO,0.1283,2.494860389834818,0.3970462479069924,Guanidine hydrochloride,,5460839,No,10.1016/j.molliq.2021.116468
NC(N)=[NH2+].[Cl-],308.15,ethanol,CCO,0.1386,2.7116591846867952,0.4332351042543628,Guanidine hydrochloride,,5460839,No,10.1016/j.molliq.2021.116468
NC(N)=[NH2+].[Cl-],313.15,ethanol,CCO,0.1518,2.9996858049403134,0.4770757679441131,Guanidine hydrochloride,,5460839,No,10.1016/j.molliq.2021.116468
NC(N)=[NH2+].[Cl-],318.15,ethanol,CCO,0.1627,3.2378813529533046,0.5102609306737665,Guanidine hydrochloride,,5460839,No,10.1016/j.molliq.2021.116468
NC(N)=[NH2+].[Cl-],323.15,ethanol,CCO,0.1719,3.438924715681343,0.5364226684297347,Guanidine hydrochloride,,5460839,No,10.1016/j.molliq.2021.116468
CC1Cc2ccccc2N1NC(=O)c1ccc(Cl)c(S(N)(=O)=O)c1,278.15,ethanol,CCO,0.0038309999999999998,0.06700195530872496,-1.173912523158893,Indapamide,26807-65-8,3702,Yes,10.1016/j.molliq.2021.116489
CC1Cc2ccccc2N1NC(=O)c1ccc(Cl)c(S(N)(=O)=O)c1,283.15,ethanol,CCO,0.005144999999999999,0.08953687901181834,-1.047998047897271,Indapamide,26807-65-8,3702,Yes,10.1016/j.molliq.2021.116489
CC1Cc2ccccc2N1NC(=O)c1ccc(Cl)c(S(N)(=O)=O)c1,288.15,ethanol,CCO,0.007088,0.12292539666809434,-0.9103583816102103,Indapamide,26807-65-8,3702,Yes,10.1016/j.molliq.2021.116489
CC1Cc2ccccc2N1NC(=O)c1ccc(Cl)c(S(N)(=O)=O)c1,293.15,ethanol,CCO,0.009132,0.1579504808056294,-0.8014790477524131,Indapamide,26807-65-8,3702,Yes,10.1016/j.molliq.2021.116489
CC1Cc2ccccc2N1NC(=O)c1ccc(Cl)c(S(N)(=O)=O)c1,298.15,ethanol,CCO,0.01158,0.1997403171030986,-0.6995342649832866,Indapamide,26807-65-8,3702,Yes,10.1016/j.molliq.2021.116489
CC1Cc2ccccc2N1NC(=O)c1ccc(Cl)c(S(N)(=O)=O)c1,303.15,ethanol,CCO,0.014839999999999999,0.2553370099493483,-0.5928862316044805,Indapamide,26807-65-8,3702,Yes,10.1016/j.molliq.2021.116489
CC1Cc2ccccc2N1NC(=O)c1ccc(Cl)c(S(N)(=O)=O)c1,308.15,ethanol,CCO,0.01856,0.3187065278947515,-0.49660904101439207,Indapamide,26807-65-8,3702,Yes,10.1016/j.molliq.2021.116489
CC1Cc2ccccc2N1NC(=O)c1ccc(Cl)c(S(N)(=O)=O)c1,313.15,ethanol,CCO,0.02274,0.3900161597272943,-0.4089173982683746,Indapamide,26807-65-8,3702,Yes,10.1016/j.molliq.2021.116489
CC1Cc2ccccc2N1NC(=O)c1ccc(Cl)c(S(N)(=O)=O)c1,318.15,ethanol,CCO,0.0275,0.4711916142774772,-0.3268024472222815,Indapamide,26807-65-8,3702,Yes,10.1016/j.molliq.2021.116489
OC(CN1CCN(CC(O)(Cn2cncn2)c2ccc(F)cc2F)CC1)(Cn1cncn1)c1ccc(F)cc1F,293.15,ethanol,CCO,0.000305,0.005228813742368852,-2.2815968280693926,"3,3-(piperazine-1,4-diyl)bis(2-(2,4-difluorophenyl)-1-(1H-1,2,4-triazol-1-yl)propan-2-ol) (s-119)",,,No,10.1016/j.molliq.2021.116535
OC(CN1CCN(CC(O)(Cn2cncn2)c2ccc(F)cc2F)CC1)(Cn1cncn1)c1ccc(F)cc1F,298.15,ethanol,CCO,0.00036,0.00613984736777918,-2.2118424249753117,"3,3-(piperazine-1,4-diyl)bis(2-(2,4-difluorophenyl)-1-(1H-1,2,4-triazol-1-yl)propan-2-ol) (s-119)",,,No,10.1016/j.molliq.2021.116535
OC(CN1CCN(CC(O)(Cn2cncn2)c2ccc(F)cc2F)CC1)(Cn1cncn1)c1ccc(F)cc1F,303.15,ethanol,CCO,0.000401,0.006799941823666015,-2.1674948028480143,"3,3-(piperazine-1,4-diyl)bis(2-(2,4-difluorophenyl)-1-(1H-1,2,4-triazol-1-yl)propan-2-ol) (s-119)",,,No,10.1016/j.molliq.2021.116535
OC(CN1CCN(CC(O)(Cn2cncn2)c2ccc(F)cc2F)CC1)(Cn1cncn1)c1ccc(F)cc1F,308.15,ethanol,CCO,0.000463,0.007806544817278554,-2.1075411426677593,"3,3-(piperazine-1,4-diyl)bis(2-(2,4-difluorophenyl)-1-(1H-1,2,4-triazol-1-yl)propan-2-ol) (s-119)",,,No,10.1016/j.molliq.2021.116535
OC(CN1CCN(CC(O)(Cn2cncn2)c2ccc(F)cc2F)CC1)(Cn1cncn1)c1ccc(F)cc1F,313.15,ethanol,CCO,0.0005480000000000001,0.009190113638553276,-2.036679118397187,"3,3-(piperazine-1,4-diyl)bis(2-(2,4-difluorophenyl)-1-(1H-1,2,4-triazol-1-yl)propan-2-ol) (s-119)",,,No,10.1016/j.molliq.2021.116535
Nc1nc(NC2CC2)c2ncn([C@H]3C=C[C@@H](CO)C3)c2n1,278.15,ethanol,CCO,0.006012,0.10537708436806198,-0.9772538218989236,Abacavir,136470-78-5,441300,Yes,10.1016/j.molliq.2021.116603
Nc1nc(NC2CC2)c2ncn([C@H]3C=C[C@@H](CO)C3)c2n1,283.15,ethanol,CCO,0.0065072,0.11339810340479359,-0.9453942090032584,Abacavir,136470-78-5,441300,Yes,10.1016/j.molliq.2021.116603
Nc1nc(NC2CC2)c2ncn([C@H]3C=C[C@@H](CO)C3)c2n1,288.15,ethanol,CCO,0.0071639,0.12425120921743886,-0.90569937600384,Abacavir,136470-78-5,441300,Yes,10.1016/j.molliq.2021.116603
Nc1nc(NC2CC2)c2ncn([C@H]3C=C[C@@H](CO)C3)c2n1,293.15,ethanol,CCO,0.0080281,0.13870248954163944,-0.8579157437969865,Abacavir,136470-78-5,441300,Yes,10.1016/j.molliq.2021.116603
Nc1nc(NC2CC2)c2ncn([C@H]3C=C[C@@H](CO)C3)c2n1,298.15,ethanol,CCO,0.009035,0.1554420592843464,-0.8084314588705472,Abacavir,136470-78-5,441300,Yes,10.1016/j.molliq.2021.116603
Nc1nc(NC2CC2)c2ncn([C@H]3C=C[C@@H](CO)C3)c2n1,303.15,ethanol,CCO,0.0103834,0.17785220363598456,-0.7499407494210218,Abacavir,136470-78-5,441300,Yes,10.1016/j.molliq.2021.116603
Nc1nc(NC2CC2)c2ncn([C@H]3C=C[C@@H](CO)C3)c2n1,308.15,ethanol,CCO,0.012281599999999998,0.209555250090669,-0.6787014541007417,Abacavir,136470-78-5,441300,Yes,10.1016/j.molliq.2021.116603
Nc1nc(NC2CC2)c2ncn([C@H]3C=C[C@@H](CO)C3)c2n1,313.15,ethanol,CCO,0.0141568,0.2406908141503466,-0.6185404840496114,Abacavir,136470-78-5,441300,Yes,10.1016/j.molliq.2021.116603
Nc1nc(NC2CC2)c2ncn([C@H]3C=C[C@@H](CO)C3)c2n1,318.15,ethanol,CCO,0.0161802,0.2740455761218872,-0.5621772042882243,Abacavir,136470-78-5,441300,Yes,10.1016/j.molliq.2021.116603
Nc1nc(NC2CC2)c2ncn([C@H]3C=C[C@@H](CO)C3)c2n1,323.15,ethanol,CCO,0.018422,0.3109149021818657,-0.5073584616806749,Abacavir,136470-78-5,441300,Yes,10.1016/j.molliq.2021.116603
NS(=O)(=O)c1ccccc1C(=O)[O-],272.15,ethanol,CCO,0.001721,0.03023186819496889,-1.519535014525895,Methyl 2-sulfamoylbenzoate,,21221501,No,10.1016/j.molliq.2021.116618
NS(=O)(=O)c1ccccc1C(=O)[O-],278.75,ethanol,CCO,0.002519,0.043969152781011586,-1.356851902496656,Methyl 2-sulfamoylbenzoate,,21221501,No,10.1016/j.molliq.2021.116618
NS(=O)(=O)c1ccccc1C(=O)[O-],283.15,ethanol,CCO,0.0032159999999999997,0.05585876658440971,-1.2529086581713316,Methyl 2-sulfamoylbenzoate,,21221501,No,10.1016/j.molliq.2021.116618
NS(=O)(=O)c1ccccc1C(=O)[O-],288.15,ethanol,CCO,0.0041979999999999995,0.0725935623790479,-1.139101890969599,Methyl 2-sulfamoylbenzoate,,21221501,No,10.1016/j.molliq.2021.116618
NS(=O)(=O)c1ccccc1C(=O)[O-],293.05,ethanol,CCO,0.005399,0.09304005899959733,-1.031330022879872,Methyl 2-sulfamoylbenzoate,,21221501,No,10.1016/j.molliq.2021.116618
NS(=O)(=O)c1ccccc1C(=O)[O-],298.05,ethanol,CCO,0.006922,0.11880754244859351,-0.9251559874707719,Methyl 2-sulfamoylbenzoate,,21221501,No,10.1016/j.molliq.2021.116618
NS(=O)(=O)c1ccccc1C(=O)[O-],303.15,ethanol,CCO,0.008875,0.1517842008475549,-0.8187734316145685,Methyl 2-sulfamoylbenzoate,,21221501,No,10.1016/j.molliq.2021.116618
NS(=O)(=O)c1ccccc1C(=O)[O-],308.05,ethanol,CCO,0.01115,0.19005540049496622,-0.721119785246143,Methyl 2-sulfamoylbenzoate,,21221501,No,10.1016/j.molliq.2021.116618
NS(=O)(=O)c1ccccc1C(=O)[O-],312.15,ethanol,CCO,0.01342,0.22821676274287167,-0.6416524593947373,Methyl 2-sulfamoylbenzoate,,21221501,No,10.1016/j.molliq.2021.116618
NS(=O)(=O)c1ccccc1C(=O)[O-],318.15,ethanol,CCO,0.017480000000000002,0.2964520771665854,-0.5280455023140398,Methyl 2-sulfamoylbenzoate,,21221501,No,10.1016/j.molliq.2021.116618
NS(=O)(=O)c1ccccc1C(=O)[O-],324.15,ethanol,CCO,0.02264,0.3833689243613906,-0.41638309366281423,Methyl 2-sulfamoylbenzoate,,21221501,No,10.1016/j.molliq.2021.116618
CCCc1nn(C)c2c(=O)[nH]c(-c3cc(S(=O)(=O)N4CCN(C)CC4)ccc3OCC)nc12.O=C(O)CC(O)(CC(=O)O)C(=O)O,293.2,ethanol,CCO,7.93e-05,0.00135906763658867,-2.8667589292378586,Sildenafil citrate,171599-83-0,135413523,Yes,10.1016/j.molliq.2021.116748
CCCc1nn(C)c2c(=O)[nH]c(-c3cc(S(=O)(=O)N4CCN(C)CC4)ccc3OCC)nc12.O=C(O)CC(O)(CC(=O)O)C(=O)O,298.2,ethanol,CCO,0.000103,0.0017555178025461526,-2.755594762035511,Sildenafil citrate,171599-83-0,135413523,Yes,10.1016/j.molliq.2021.116748
CCCc1nn(C)c2c(=O)[nH]c(-c3cc(S(=O)(=O)N4CCN(C)CC4)ccc3OCC)nc12.O=C(O)CC(O)(CC(=O)O)C(=O)O,303.2,ethanol,CCO,0.000122,0.002067818813940362,-2.68448751758641,Sildenafil citrate,171599-83-0,135413523,Yes,10.1016/j.molliq.2021.116748
CCCc1nn(C)c2c(=O)[nH]c(-c3cc(S(=O)(=O)N4CCN(C)CC4)ccc3OCC)nc12.O=C(O)CC(O)(CC(=O)O)C(=O)O,308.2,ethanol,CCO,0.000164,0.0027642513325041303,-2.558422472384193,Sildenafil citrate,171599-83-0,135413523,Yes,10.1016/j.molliq.2021.116748
CCCc1nn(C)c2c(=O)[nH]c(-c3cc(S(=O)(=O)N4CCN(C)CC4)ccc3OCC)nc12.O=C(O)CC(O)(CC(=O)O)C(=O)O,313.2,ethanol,CCO,0.000226,0.0037880707387230044,-2.421581919544633,Sildenafil citrate,171599-83-0,135413523,Yes,10.1016/j.molliq.2021.116748
O=C(O)C(O)c1ccccc1,294.65,ethanol,CCO,0.24653,5.59808748795734,0.7480396814184972,"(R,S)-mandelic acid",90-64-2,1292,Yes,10.1016/j.molliq.2021.116768
O=C(O)C(O)c1ccccc1,299.45,ethanol,CCO,0.26106,6.01242676364157,0.7790497993461206,"(R,S)-mandelic acid",90-64-2,1292,Yes,10.1016/j.molliq.2021.116768
O=C(O)C(O)c1ccccc1,303.85,ethanol,CCO,0.27379000000000003,6.3846773617371895,0.8051389558582458,"(R,S)-mandelic acid",90-64-2,1292,Yes,10.1016/j.molliq.2021.116768
O=C(O)C(O)c1ccccc1,308.25,ethanol,CCO,0.29231999999999997,6.960807379424377,0.8426596160606695,"(R,S)-mandelic acid",90-64-2,1292,Yes,10.1016/j.molliq.2021.116768
O=C(O)C(O)c1ccccc1,314.65,ethanol,CCO,0.32492,8.052288123718068,0.9059193062442064,"(R,S)-mandelic acid",90-64-2,1292,Yes,10.1016/j.molliq.2021.116768
O=C(O)C(O)c1ccccc1,319.15,ethanol,CCO,0.34879,8.914965157925781,0.950119650175407,"(R,S)-mandelic acid",90-64-2,1292,Yes,10.1016/j.molliq.2021.116768
O=C(O)C(O)c1ccccc1,324.85,ethanol,CCO,0.37559,9.946966413843123,0.99769065153907,"(R,S)-mandelic acid",90-64-2,1292,Yes,10.1016/j.molliq.2021.116768
O=C(O)C(O)c1ccccc1,328.55,ethanol,CCO,0.39448,10.727435335295223,1.0304959052966134,"(R,S)-mandelic acid",90-64-2,1292,Yes,10.1016/j.molliq.2021.116768
O=C(O)C(O)c1ccccc1,333.45,ethanol,CCO,0.41756,11.738397911469814,1.0696088272619473,"(R,S)-mandelic acid",90-64-2,1292,Yes,10.1016/j.molliq.2021.116768
O=C(O)C(O)c1ccccc1,338.15,ethanol,CCO,0.43899,12.742483230234402,1.1052540707071687,"(R,S)-mandelic acid",90-64-2,1292,Yes,10.1016/j.molliq.2021.116768
O=[N+]([O-])N=C1NCCN1Cc1ccc(Cl)nc1,283.15,ethanol,CCO,0.0003033,0.005252674774671105,-2.2796194882009373,Imidacloprid,138261-41-3,135527764,No,10.1016/j.molliq.2021.116781
O=[N+]([O-])N=C1NCCN1Cc1ccc(Cl)nc1,288.15,ethanol,CCO,0.00039979999999999996,0.0068872385295771395,-2.161954875590951,Imidacloprid,138261-41-3,135527764,No,10.1016/j.molliq.2021.116781
O=[N+]([O-])N=C1NCCN1Cc1ccc(Cl)nc1,293.15,ethanol,CCO,0.0005299,0.0090864651599165,-2.041605034281906,Imidacloprid,138261-41-3,135527764,No,10.1016/j.molliq.2021.116781
O=[N+]([O-])N=C1NCCN1Cc1ccc(Cl)nc1,298.15,ethanol,CCO,0.0006990999999999999,0.011927288485681148,-1.9234582763256087,Imidacloprid,138261-41-3,135527764,No,10.1016/j.molliq.2021.116781
O=[N+]([O-])N=C1NCCN1Cc1ccc(Cl)nc1,303.15,ethanol,CCO,0.0008945,0.015175941112584013,-1.8188443673150603,Imidacloprid,138261-41-3,135527764,No,10.1016/j.molliq.2021.116781
O=[N+]([O-])N=C1NCCN1Cc1ccc(Cl)nc1,308.15,ethanol,CCO,0.001152,0.019437026023863796,-1.7113701838660147,Imidacloprid,138261-41-3,135527764,No,10.1016/j.molliq.2021.116781
O=[N+]([O-])N=C1NCCN1Cc1ccc(Cl)nc1,313.15,ethanol,CCO,0.0014830000000000002,0.024893614068463306,-1.6039120477043916,Imidacloprid,138261-41-3,135527764,No,10.1016/j.molliq.2021.116781
O=[N+]([O-])N=C1NCCN1Cc1ccc(Cl)nc1,318.15,ethanol,CCO,0.001909,0.03187060133741393,-1.496609742141051,Imidacloprid,138261-41-3,135527764,No,10.1016/j.molliq.2021.116781
O=[N+]([O-])N=C1NCCN1Cc1ccc(Cl)nc1,323.15,ethanol,CCO,0.002379,0.03950557942345165,-1.403341564077349,Imidacloprid,138261-41-3,135527764,No,10.1016/j.molliq.2021.116781
COc1cc(/C=C/C(=O)CC(=O)/C=C/c2ccc(O)c(OC)c2)ccc1O,278.15,ethanol,CCO,0.00041,0.007146119947119918,-2.145929698470115,Curcumin,458-37-7,969516,No,10.1016/j.molliq.2021.116795