SMILES_Solute,Temperature_K,Solvent,SMILES_Solvent,Solubility(mole_fraction),Solubility(mol/L),LogS(mol/L),Compound_Name,CAS,PubChem_CID,FDA_Approved,Source
CC(=O)Oc1ccccc1C(=O)Nc1ncc([N+](=O)[O-])s1,288.15,ethanol,CCO,0.000211,0.0036341493404041373,-2.439597229922645,Nitazoxanide,55981-09-4,41684,Yes,10.1021/acs.jced.0c00254
CC(=O)Oc1ccccc1C(=O)Nc1ncc([N+](=O)[O-])s1,293.15,ethanol,CCO,0.000246,0.00421708941293869,-2.3749871907484237,Nitazoxanide,55981-09-4,41684,Yes,10.1021/acs.jced.0c00254
CC(=O)Oc1ccccc1C(=O)Nc1ncc([N+](=O)[O-])s1,298.15,ethanol,CCO,0.000285,0.004860347842127038,-2.313332648328134,Nitazoxanide,55981-09-4,41684,Yes,10.1021/acs.jced.0c00254
CC(=O)Oc1ccccc1C(=O)Nc1ncc([N+](=O)[O-])s1,303.15,ethanol,CCO,0.000331,0.00561252652571955,-2.250841593436922,Nitazoxanide,55981-09-4,41684,Yes,10.1021/acs.jced.0c00254
CC(=O)Oc1ccccc1C(=O)Nc1ncc([N+](=O)[O-])s1,308.15,ethanol,CCO,0.000385,0.006490896833306393,-2.187695293515897,Nitazoxanide,55981-09-4,41684,Yes,10.1021/acs.jced.0c00254
CC(=O)Oc1ccccc1C(=O)Nc1ncc([N+](=O)[O-])s1,313.15,ethanol,CCO,0.00045,0.0075458862607255504,-2.122289745213945,Nitazoxanide,55981-09-4,41684,Yes,10.1021/acs.jced.0c00254
CCOC(=O)C1(c2ccccc2)CCN(CCC(C#N)(c2ccccc2)c2ccccc2)CC1,278.15,ethanol,CCO,0.0008824,0.015387116346292425,-1.812842762380064,Diphenoxylate,915-30-0,13505,Yes,10.1021/acs.jced.0c00267
CCOC(=O)C1(c2ccccc2)CCN(CCC(C#N)(c2ccccc2)c2ccccc2)CC1,283.15,ethanol,CCO,0.001089,0.018874586420096515,-1.724122555854417,Diphenoxylate,915-30-0,13505,Yes,10.1021/acs.jced.0c00267
CCOC(=O)C1(c2ccccc2)CCN(CCC(C#N)(c2ccccc2)c2ccccc2)CC1,288.15,ethanol,CCO,0.001271,0.02191424732991746,-1.6592734410984098,Diphenoxylate,915-30-0,13505,Yes,10.1021/acs.jced.0c00267
CCOC(=O)C1(c2ccccc2)CCN(CCC(C#N)(c2ccccc2)c2ccccc2)CC1,293.15,ethanol,CCO,0.001543,0.026485453435949286,-1.5769925874614412,Diphenoxylate,915-30-0,13505,Yes,10.1021/acs.jced.0c00267
CCOC(=O)C1(c2ccccc2)CCN(CCC(C#N)(c2ccccc2)c2ccccc2)CC1,298.15,ethanol,CCO,0.001927,0.0329168378097775,-1.4825818924065186,Diphenoxylate,915-30-0,13505,Yes,10.1021/acs.jced.0c00267
CCOC(=O)C1(c2ccccc2)CCN(CCC(C#N)(c2ccccc2)c2ccccc2)CC1,303.15,ethanol,CCO,0.002266,0.038497432929877076,-1.414568228973543,Diphenoxylate,915-30-0,13505,Yes,10.1021/acs.jced.0c00267
CCOC(=O)C1(c2ccccc2)CCN(CCC(C#N)(c2ccccc2)c2ccccc2)CC1,308.15,ethanol,CCO,0.002768,0.04677853549444285,-1.3299533788637232,Diphenoxylate,915-30-0,13505,Yes,10.1021/acs.jced.0c00267
CCOC(=O)C1(c2ccccc2)CCN(CCC(C#N)(c2ccccc2)c2ccccc2)CC1,313.15,ethanol,CCO,0.003399,0.05716525044153089,-1.242867889519538,Diphenoxylate,915-30-0,13505,Yes,10.1021/acs.jced.0c00267
CCOC(=O)C1(c2ccccc2)CCN(CCC(C#N)(c2ccccc2)c2ccccc2)CC1,318.15,ethanol,CCO,0.004319,0.07227988504378234,-1.1409825468262509,Diphenoxylate,915-30-0,13505,Yes,10.1021/acs.jced.0c00267
CC1=NN(c2ccccc2)C(=O)C1,283.15,ethanol,CCO,0.017607,0.31029620562719334,-0.5082235350353879,Edaravone,89-25-8,4021,Yes,10.1021/acs.jced.0c00290
CC1=NN(c2ccccc2)C(=O)C1,293.15,ethanol,CCO,0.024015,0.4217065052802762,-0.3749896994699928,Edaravone,89-25-8,4021,Yes,10.1021/acs.jced.0c00290
CC1=NN(c2ccccc2)C(=O)C1,303.15,ethanol,CCO,0.033871,0.5942641588732206,-0.22602046202341702,Edaravone,89-25-8,4021,Yes,10.1021/acs.jced.0c00290
CC1=NN(c2ccccc2)C(=O)C1,313.15,ethanol,CCO,0.045678,0.8022586510417142,-0.09568559105461844,Edaravone,89-25-8,4021,Yes,10.1021/acs.jced.0c00290
CC1=NN(c2ccccc2)C(=O)C1,323.15,ethanol,CCO,0.059664,1.0511359250118286,0.02165887936379983,Edaravone,89-25-8,4021,Yes,10.1021/acs.jced.0c00290
CC(=O)Nc1ccc(OC(=O)c2ccccc2OC(C)=O)cc1,278.15,ethanol,CCO,0.000158,0.0027531765287080543,-2.560165941535864,Benorilate,5003-48-5,21102,Yes,10.1021/acs.jced.0c00301
CC(=O)Nc1ccc(OC(=O)c2ccccc2OC(C)=O)cc1,283.15,ethanol,CCO,0.00021,0.003636527416443272,-2.4393131338549168,Benorilate,5003-48-5,21102,Yes,10.1021/acs.jced.0c00301
CC(=O)Nc1ccc(OC(=O)c2ccccc2OC(C)=O)cc1,288.15,ethanol,CCO,0.000265,0.004564462529237203,-2.34061035379862,Benorilate,5003-48-5,21102,Yes,10.1021/acs.jced.0c00301
CC(=O)Nc1ccc(OC(=O)c2ccccc2OC(C)=O)cc1,293.15,ethanol,CCO,0.000326,0.00558894782998222,-2.2526699442857927,Benorilate,5003-48-5,21102,Yes,10.1021/acs.jced.0c00301
CC(=O)Nc1ccc(OC(=O)c2ccccc2OC(C)=O)cc1,298.15,ethanol,CCO,0.000403,0.006873513693126363,-2.1628211978116623,Benorilate,5003-48-5,21102,Yes,10.1021/acs.jced.0c00301
CC(=O)Nc1ccc(OC(=O)c2ccccc2OC(C)=O)cc1,303.15,ethanol,CCO,0.000486,0.008242026854077107,-2.0839659747958392,Benorilate,5003-48-5,21102,Yes,10.1021/acs.jced.0c00301
CC(=O)Nc1ccc(OC(=O)c2ccccc2OC(C)=O)cc1,308.15,ethanol,CCO,0.000589,0.009932256141976873,-2.0029520889953694,Benorilate,5003-48-5,21102,Yes,10.1021/acs.jced.0c00301
CC(=O)Nc1ccc(OC(=O)c2ccccc2OC(C)=O)cc1,313.15,ethanol,CCO,0.000733,0.012294891307614545,-1.910275306267426,Benorilate,5003-48-5,21102,Yes,10.1021/acs.jced.0c00301
CC(=O)Nc1ccc(OC(=O)c2ccccc2OC(C)=O)cc1,318.15,ethanol,CCO,0.000907,0.015127105641564387,-1.820244160155568,Benorilate,5003-48-5,21102,Yes,10.1021/acs.jced.0c00301
O=c1cc(CBr)c2ccccc2[nH]1,273.15,ethanol,CCO,0.000173,0.003031009418706744,-2.518412714082391,4-(bromomethyl)-2(1H)-quinolinone,4876-10-2,268296,No,10.1021/acs.jced.0c00303
O=c1cc(CBr)c2ccccc2[nH]1,278.15,ethanol,CCO,0.000188,0.0032760298622312224,-2.4846521481377706,4-(bromomethyl)-2(1H)-quinolinone,4876-10-2,268296,No,10.1021/acs.jced.0c00303
O=c1cc(CBr)c2ccccc2[nH]1,283.15,ethanol,CCO,0.000206,0.0035672459555777,-2.447666945759018,4-(bromomethyl)-2(1H)-quinolinone,4876-10-2,268296,No,10.1021/acs.jced.0c00303
O=c1cc(CBr)c2ccccc2[nH]1,288.15,ethanol,CCO,0.000227,0.0039097872156353035,-2.407846877793403,4-(bromomethyl)-2(1H)-quinolinone,4876-10-2,268296,No,10.1021/acs.jced.0c00303
O=c1cc(CBr)c2ccccc2[nH]1,293.15,ethanol,CCO,0.000247,0.004234236288106851,-2.3732249101905754,4-(bromomethyl)-2(1H)-quinolinone,4876-10-2,268296,No,10.1021/acs.jced.0c00303
O=c1cc(CBr)c2ccccc2[nH]1,298.15,ethanol,CCO,0.000271,0.004621529193186234,-2.3352142992757288,4-(bromomethyl)-2(1H)-quinolinone,4876-10-2,268296,No,10.1021/acs.jced.0c00303
O=c1cc(CBr)c2ccccc2[nH]1,303.15,ethanol,CCO,0.000301,0.005103685159720388,-2.2921161245716686,4-(bromomethyl)-2(1H)-quinolinone,4876-10-2,268296,No,10.1021/acs.jced.0c00303
O=c1cc(CBr)c2ccccc2[nH]1,308.15,ethanol,CCO,0.000338,0.005698233715340311,-2.244259741968945,4-(bromomethyl)-2(1H)-quinolinone,4876-10-2,268296,No,10.1021/acs.jced.0c00303
O=c1cc(CBr)c2ccccc2[nH]1,313.15,ethanol,CCO,0.000385,0.006455505115213059,-2.190069770412711,4-(bromomethyl)-2(1H)-quinolinone,4876-10-2,268296,No,10.1021/acs.jced.0c00303
Nc1cccc(Cl)c1C(=O)O,278.15,ethanol,CCO,0.02838,0.5088904406489904,-0.29337570713886263,2-amino-6-chlorobenzoic acid,2148-56-3,75071,No,10.1021/acs.jced.0c00320
Nc1cccc(Cl)c1C(=O)O,283.15,ethanol,CCO,0.03458,0.6201333065293844,-0.20751494265164247,2-amino-6-chlorobenzoic acid,2148-56-3,75071,No,10.1021/acs.jced.0c00320
Nc1cccc(Cl)c1C(=O)O,288.15,ethanol,CCO,0.04082,0.7328271565411224,-0.13499844529349606,2-amino-6-chlorobenzoic acid,2148-56-3,75071,No,10.1021/acs.jced.0c00320
Nc1cccc(Cl)c1C(=O)O,293.15,ethanol,CCO,0.049,0.8830522788943271,-0.054013584346289334,2-amino-6-chlorobenzoic acid,2148-56-3,75071,No,10.1021/acs.jced.0c00320
Nc1cccc(Cl)c1C(=O)O,298.15,ethanol,CCO,0.05836,1.0566449570440188,0.023929084659436488,2-amino-6-chlorobenzoic acid,2148-56-3,75071,No,10.1021/acs.jced.0c00320
Nc1cccc(Cl)c1C(=O)O,303.15,ethanol,CCO,0.07023,1.2803649500168386,0.10733377682586918,2-amino-6-chlorobenzoic acid,2148-56-3,75071,No,10.1021/acs.jced.0c00320
Nc1cccc(Cl)c1C(=O)O,308.15,ethanol,CCO,0.08313,1.5280119794208549,0.184126759066883,2-amino-6-chlorobenzoic acid,2148-56-3,75071,No,10.1021/acs.jced.0c00320
Nc1cccc(Cl)c1C(=O)O,313.15,ethanol,CCO,0.1003,1.8685532421285984,0.27150547704957106,2-amino-6-chlorobenzoic acid,2148-56-3,75071,No,10.1021/acs.jced.0c00320
Nc1cccc(Cl)c1C(=O)O,318.15,ethanol,CCO,0.1194,2.2593323180166696,0.3539801146150445,2-amino-6-chlorobenzoic acid,2148-56-3,75071,No,10.1021/acs.jced.0c00320
Nc1cccc(Cl)c1C(=O)O,323.15,ethanol,CCO,0.1408,2.714800764604854,0.43373796283548266,2-amino-6-chlorobenzoic acid,2148-56-3,75071,No,10.1021/acs.jced.0c00320
OCc1ccccc1O[C@@H]1OC(CO)[C@@H](O)[C@@H](O)C1O,283.15,ethanol,CCO,0.00029553,0.0051180709233215405,-2.2908937002007352,D()-salicin,,,No,10.1021/acs.jced.0c00332
OCc1ccccc1O[C@@H]1OC(CO)[C@@H](O)[C@@H](O)C1O,293.15,ethanol,CCO,0.00053627,0.009195753401944827,-2.036412683510911,D()-salicin,,,No,10.1021/acs.jced.0c00332
OCc1ccccc1O[C@@H]1OC(CO)[C@@H](O)[C@@H](O)C1O,303.15,ethanol,CCO,0.0007282,0.012352466380785465,-1.908246319438888,D()-salicin,,,No,10.1021/acs.jced.0c00332
OCc1ccccc1O[C@@H]1OC(CO)[C@@H](O)[C@@H](O)C1O,313.15,ethanol,CCO,0.00112336,0.01884991358068271,-1.7246906365201864,D()-salicin,,,No,10.1021/acs.jced.0c00332
OCc1ccccc1O[C@@H]1OC(CO)[C@@H](O)[C@@H](O)C1O,323.15,ethanol,CCO,0.00153807,0.025519617886551837,-1.5931258327331794,D()-salicin,,,No,10.1021/acs.jced.0c00332
OC[C@H]1O[C@@H](Oc2ccc(O)cc2)[C@H](O)[C@@H](O)[C@@H]1O,283.15,ethanol,CCO,0.002284,0.039633782583928405,-1.4019344773268247,-Arbutin,497-76-7,440936,No,10.1021/acs.jced.0c00353
OC[C@H]1O[C@@H](Oc2ccc(O)cc2)[C@H](O)[C@@H](O)[C@@H]1O,293.15,ethanol,CCO,0.002741,0.04710553316279375,-1.3269280762908482,-Arbutin,497-76-7,440936,No,10.1021/acs.jced.0c00353
OC[C@H]1O[C@@H](Oc2ccc(O)cc2)[C@H](O)[C@@H](O)[C@@H]1O,303.15,ethanol,CCO,0.003511,0.059723459715436154,-1.223855042008601,-Arbutin,497-76-7,440936,No,10.1021/acs.jced.0c00353
OC[C@H]1O[C@@H](Oc2ccc(O)cc2)[C@H](O)[C@@H](O)[C@@H]1O,313.15,ethanol,CCO,0.004398,0.07404090682191918,-1.1305282708302107,-Arbutin,497-76-7,440936,No,10.1021/acs.jced.0c00353
OC[C@H]1O[C@@H](Oc2ccc(O)cc2)[C@H](O)[C@@H](O)[C@@H]1O,323.15,ethanol,CCO,0.005824,0.09704824092894868,-1.0130123321125524,-Arbutin,497-76-7,440936,No,10.1021/acs.jced.0c00353
O=C(NCCO[N+](=O)[O-])c1cccnc1,278.15,ethanol,CCO,0.001532,0.02673209292764938,-1.572967037826094,Nicorandil,65141-46-0,47528,Yes,10.1021/acs.jced.0c00370
O=C(NCCO[N+](=O)[O-])c1cccnc1,283.15,ethanol,CCO,0.00167,0.02896134380269964,-1.5381812907981853,Nicorandil,65141-46-0,47528,Yes,10.1021/acs.jced.0c00370
O=C(NCCO[N+](=O)[O-])c1cccnc1,288.15,ethanol,CCO,0.001808,0.031189830184951205,-1.50598698978083,Nicorandil,65141-46-0,47528,Yes,10.1021/acs.jced.0c00370
O=C(NCCO[N+](=O)[O-])c1cccnc1,293.15,ethanol,CCO,0.001946,0.03341639908254669,-1.4760403510565308,Nicorandil,65141-46-0,47528,Yes,10.1021/acs.jced.0c00370
O=C(NCCO[N+](=O)[O-])c1cccnc1,298.15,ethanol,CCO,0.002084,0.035604298122182756,-1.4484975711824142,Nicorandil,65141-46-0,47528,Yes,10.1021/acs.jced.0c00370
O=C(NCCO[N+](=O)[O-])c1cccnc1,303.15,ethanol,CCO,0.002222,0.03774824526537438,-1.4231032318302197,Nicorandil,65141-46-0,47528,Yes,10.1021/acs.jced.0c00370
O=C(NCCO[N+](=O)[O-])c1cccnc1,308.15,ethanol,CCO,0.00236,0.03986712250714374,-1.399385109317972,Nicorandil,65141-46-0,47528,Yes,10.1021/acs.jced.0c00370
O=C(NCCO[N+](=O)[O-])c1cccnc1,313.15,ethanol,CCO,0.002498,0.04197405462967993,-1.3770190765773322,Nicorandil,65141-46-0,47528,Yes,10.1021/acs.jced.0c00370
O=C(NCCO[N+](=O)[O-])c1cccnc1,318.15,ethanol,CCO,0.002635,0.044023134824683806,-1.3563190351904908,Nicorandil,65141-46-0,47528,Yes,10.1021/acs.jced.0c00370
O=C(NCCO[N+](=O)[O-])c1cccnc1,323.15,ethanol,CCO,0.002805,0.04659961726407142,-1.3316176502796224,Nicorandil,65141-46-0,47528,Yes,10.1021/acs.jced.0c00370
CCCCS(=O)(=O)N[C@@H](Cc1ccc(OCCCCC2CCNCC2)cc1)C(=O)O,278.15,ethanol,CCO,0.0001293,0.0022530095382939084,-2.647236969652271,Tirofiban,144494-65-5,60947,Yes,10.1021/acs.jced.0c00371
CCCCS(=O)(=O)N[C@@H](Cc1ccc(OCCCCC2CCNCC2)cc1)C(=O)O,283.15,ethanol,CCO,0.0001563,0.0027064700376987663,-2.567596776455469,Tirofiban,144494-65-5,60947,Yes,10.1021/acs.jced.0c00371
CCCCS(=O)(=O)N[C@@H](Cc1ccc(OCCCCC2CCNCC2)cc1)C(=O)O,288.15,ethanol,CCO,0.0001832,0.0031552495127650263,-2.5009662916552373,Tirofiban,144494-65-5,60947,Yes,10.1021/acs.jced.0c00371
CCCCS(=O)(=O)N[C@@H](Cc1ccc(OCCCCC2CCNCC2)cc1)C(=O)O,293.15,ethanol,CCO,0.0002156,0.0036958407790773913,-2.4322867469372054,Tirofiban,144494-65-5,60947,Yes,10.1021/acs.jced.0c00371
CCCCS(=O)(=O)N[C@@H](Cc1ccc(OCCCCC2CCNCC2)cc1)C(=O)O,298.15,ethanol,CCO,0.0002498,0.004259902257687163,-2.370600365553173,Tirofiban,144494-65-5,60947,Yes,10.1021/acs.jced.0c00371
CCCCS(=O)(=O)N[C@@H](Cc1ccc(OCCCCC2CCNCC2)cc1)C(=O)O,303.15,ethanol,CCO,0.0002883,0.004888284848752767,-2.310843494942857,Tirofiban,144494-65-5,60947,Yes,10.1021/acs.jced.0c00371
CCCCS(=O)(=O)N[C@@H](Cc1ccc(OCCCCC2CCNCC2)cc1)C(=O)O,308.15,ethanol,CCO,0.0003286,0.005539710035926123,-2.2565129668767936,Tirofiban,144494-65-5,60947,Yes,10.1021/acs.jced.0c00371
CCCCS(=O)(=O)N[C@@H](Cc1ccc(OCCCCC2CCNCC2)cc1)C(=O)O,313.15,ethanol,CCO,0.0003726,0.006247510048904232,-2.2042930366532696,Tirofiban,144494-65-5,60947,Yes,10.1021/acs.jced.0c00371
CCCCS(=O)(=O)N[C@@H](Cc1ccc(OCCCCC2CCNCC2)cc1)C(=O)O,318.15,ethanol,CCO,0.0004275,0.00712649998559009,-2.1471237114032644,Tirofiban,144494-65-5,60947,Yes,10.1021/acs.jced.0c00371
CCCCS(=O)(=O)N[C@@H](Cc1ccc(OCCCCC2CCNCC2)cc1)C(=O)O,323.15,ethanol,CCO,0.0004901,0.00812320061234209,-2.0902728212015367,Tirofiban,144494-65-5,60947,Yes,10.1021/acs.jced.0c00371
O=Cc1cc(Br)c(O)c(Br)c1,278.15,ethanol,CCO,0.002806,0.049024859478780686,-1.3095836424878704,"3,5-dibromo-4-hydroxybenzaldehyde",2973-77-5,18100,No,10.1021/acs.jced.0c00376
O=Cc1cc(Br)c(O)c(Br)c1,283.15,ethanol,CCO,0.003135,0.05444745153544477,-1.2640224429971925,"3,5-dibromo-4-hydroxybenzaldehyde",2973-77-5,18100,No,10.1021/acs.jced.0c00376
O=Cc1cc(Br)c(O)c(Br)c1,288.15,ethanol,CCO,0.003577,0.06181642221103264,-1.2088961344873794,"3,5-dibromo-4-hydroxybenzaldehyde",2973-77-5,18100,No,10.1021/acs.jced.0c00376
O=Cc1cc(Br)c(O)c(Br)c1,293.15,ethanol,CCO,0.004131,0.0710925077386716,-1.148176166066342,"3,5-dibromo-4-hydroxybenzaldehyde",2973-77-5,18100,No,10.1021/acs.jced.0c00376
O=Cc1cc(Br)c(O)c(Br)c1,298.15,ethanol,CCO,0.00477,0.0817134637733286,-1.0877063796889286,"3,5-dibromo-4-hydroxybenzaldehyde",2973-77-5,18100,No,10.1021/acs.jced.0c00376
O=Cc1cc(Br)c(O)c(Br)c1,303.15,ethanol,CCO,0.005547,0.09454978402525425,-1.02433945885223,"3,5-dibromo-4-hydroxybenzaldehyde",2973-77-5,18100,No,10.1021/acs.jced.0c00376
O=Cc1cc(Br)c(O)c(Br)c1,308.15,ethanol,CCO,0.006463,0.10962935328210449,-0.9600731478438413,"3,5-dibromo-4-hydroxybenzaldehyde",2973-77-5,18100,No,10.1021/acs.jced.0c00376
O=Cc1cc(Br)c(O)c(Br)c1,313.15,ethanol,CCO,0.00742,0.12529699333579386,-0.9020593503413684,"3,5-dibromo-4-hydroxybenzaldehyde",2973-77-5,18100,No,10.1021/acs.jced.0c00376
O=Cc1cc(Br)c(O)c(Br)c1,318.15,ethanol,CCO,0.008506,0.14295184235619104,-0.8448102431043731,"3,5-dibromo-4-hydroxybenzaldehyde",2973-77-5,18100,No,10.1021/acs.jced.0c00376
O=Cc1cc(Br)c(O)c(Br)c1,323.15,ethanol,CCO,0.009735,0.16285987707515587,-0.7881858973437567,"3,5-dibromo-4-hydroxybenzaldehyde",2973-77-5,18100,No,10.1021/acs.jced.0c00376
Nc1cc(-c2ccncc2)c[nH]c1=O,278.15,ethanol,CCO,2.654e-05,0.00046240315902610897,-3.3349792075829408,Amrinone,60719-84-8,3698,Yes,10.1021/acs.jced.0c00393
Nc1cc(-c2ccncc2)c[nH]c1=O,283.15,ethanol,CCO,3.182e-05,0.0005509223036225714,-3.258909645226724,Amrinone,60719-84-8,3698,Yes,10.1021/acs.jced.0c00393
Nc1cc(-c2ccncc2)c[nH]c1=O,288.15,ethanol,CCO,3.712e-05,0.0006392235369598708,-3.1943472421677854,Amrinone,60719-84-8,3698,Yes,10.1021/acs.jced.0c00393
Nc1cc(-c2ccncc2)c[nH]c1=O,293.15,ethanol,CCO,4.406e-05,0.0007551521805987084,-3.121965519186211,Amrinone,60719-84-8,3698,Yes,10.1021/acs.jced.0c00393
Nc1cc(-c2ccncc2)c[nH]c1=O,298.15,ethanol,CCO,5.067e-05,0.0008639161855819176,-3.06352838935552,Amrinone,60719-84-8,3698,Yes,10.1021/acs.jced.0c00393
Nc1cc(-c2ccncc2)c[nH]c1=O,303.15,ethanol,CCO,5.835e-05,0.000989128782976562,-3.004747160278508,Amrinone,60719-84-8,3698,Yes,10.1021/acs.jced.0c00393
Nc1cc(-c2ccncc2)c[nH]c1=O,308.15,ethanol,CCO,6.702e-05,0.0011295625165382319,-2.9470897277040145,Amrinone,60719-84-8,3698,Yes,10.1021/acs.jced.0c00393
Nc1cc(-c2ccncc2)c[nH]c1=O,313.15,ethanol,CCO,7.536e-05,0.0012632109567185955,-2.8985241160414112,Amrinone,60719-84-8,3698,Yes,10.1021/acs.jced.0c00393
Nc1cc(-c2ccncc2)c[nH]c1=O,318.15,ethanol,CCO,8.469e-05,0.0014113131358657548,-2.8503766162309905,Amrinone,60719-84-8,3698,Yes,10.1021/acs.jced.0c00393
Nc1cc(-c2ccncc2)c[nH]c1=O,323.15,ethanol,CCO,9.665e-05,0.0016013026093494064,-2.7955265886603313,Amrinone,60719-84-8,3698,Yes,10.1021/acs.jced.0c00393
Cc1[nH]c(=O)c(C#N)cc1-c1ccncc1,278.15,ethanol,CCO,9.235e-06,0.00016089748588923506,-3.793450741935542,Milrinone,78415-72-2,4197,Yes,10.1021/acs.jced.0c00394
Cc1[nH]c(=O)c(C#N)cc1-c1ccncc1,283.15,ethanol,CCO,1.135e-05,0.00019650660422392954,-3.706622849208085,Milrinone,78415-72-2,4197,Yes,10.1021/acs.jced.0c00394
Cc1[nH]c(=O)c(C#N)cc1-c1ccncc1,288.15,ethanol,CCO,1.347e-05,0.00023195413269237074,-3.634597885315935,Milrinone,78415-72-2,4197,Yes,10.1021/acs.jced.0c00394
Cc1[nH]c(=O)c(C#N)cc1-c1ccncc1,293.15,ethanol,CCO,1.582e-05,0.000271134138047267,-3.566815797682681,Milrinone,78415-72-2,4197,Yes,10.1021/acs.jced.0c00394
Cc1[nH]c(=O)c(C#N)cc1-c1ccncc1,298.15,ethanol,CCO,1.841e-05,0.0003138777162343115,-3.5032395159660976,Milrinone,78415-72-2,4197,Yes,10.1021/acs.jced.0c00394
Cc1[nH]c(=O)c(C#N)cc1-c1ccncc1,303.15,ethanol,CCO,2.134e-05,0.0003617348244158348,-3.441609679450687,Milrinone,78415-72-2,4197,Yes,10.1021/acs.jced.0c00394
Cc1[nH]c(=O)c(C#N)cc1-c1ccncc1,308.15,ethanol,CCO,2.427e-05,0.0004090317857180124,-3.3882429418079245,Milrinone,78415-72-2,4197,Yes,10.1021/acs.jced.0c00394
Cc1[nH]c(=O)c(C#N)cc1-c1ccncc1,313.15,ethanol,CCO,2.744e-05,0.00045993693709346867,-3.3373017112528554,Milrinone,78415-72-2,4197,Yes,10.1021/acs.jced.0c00394
Cc1[nH]c(=O)c(C#N)cc1-c1ccncc1,318.15,ethanol,CCO,3.097e-05,0.0005160706072915697,-3.2872908753896284,Milrinone,78415-72-2,4197,Yes,10.1021/acs.jced.0c00394
Cc1[nH]c(=O)c(C#N)cc1-c1ccncc1,323.15,ethanol,CCO,3.497e-05,0.0005793491795047894,-3.237059603762298,Milrinone,78415-72-2,4197,Yes,10.1021/acs.jced.0c00394
COc1cc2nc(Cl)nc(N)c2cc1OC,273.15,ethanol,CCO,0.0001689,0.002959164112839799,-2.528830948552,"2-chloro-4-amino-6,7-dimethoxyquinazoline",23680-84-4,90235,No,10.1021/acs.jced.0c00506
COc1cc2nc(Cl)nc(N)c2cc1OC,278.15,ethanol,CCO,0.0002056,0.0035827850884209917,-2.445779241990777,"2-chloro-4-amino-6,7-dimethoxyquinazoline",23680-84-4,90235,No,10.1021/acs.jced.0c00506
COc1cc2nc(Cl)nc(N)c2cc1OC,283.15,ethanol,CCO,0.0002457,0.004254889008681842,-2.3711117642622863,"2-chloro-4-amino-6,7-dimethoxyquinazoline",23680-84-4,90235,No,10.1021/acs.jced.0c00506
COc1cc2nc(Cl)nc(N)c2cc1OC,288.15,ethanol,CCO,0.0003002,0.005170943013656548,-2.2864302483410373,"2-chloro-4-amino-6,7-dimethoxyquinazoline",23680-84-4,90235,No,10.1021/acs.jced.0c00506
COc1cc2nc(Cl)nc(N)c2cc1OC,293.15,ethanol,CCO,0.0003587,0.006149758176826696,-2.211141961384681,"2-chloro-4-amino-6,7-dimethoxyquinazoline",23680-84-4,90235,No,10.1021/acs.jced.0c00506
COc1cc2nc(Cl)nc(N)c2cc1OC,298.15,ethanol,CCO,0.0004226,0.00720794998467557,-2.1421882355493556,"2-chloro-4-amino-6,7-dimethoxyquinazoline",23680-84-4,90235,No,10.1021/acs.jced.0c00506
COc1cc2nc(Cl)nc(N)c2cc1OC,303.15,ethanol,CCO,0.0004973,0.008433757805688133,-2.0739788748842893,"2-chloro-4-amino-6,7-dimethoxyquinazoline",23680-84-4,90235,No,10.1021/acs.jced.0c00506
COc1cc2nc(Cl)nc(N)c2cc1OC,308.15,ethanol,CCO,0.0005853,0.009869826821577284,-2.005690467501913,"2-chloro-4-amino-6,7-dimethoxyquinazoline",23680-84-4,90235,No,10.1021/acs.jced.0c00506
COc1cc2nc(Cl)nc(N)c2cc1OC,313.15,ethanol,CCO,0.0006934,0.01163020436214285,-1.9344126539240734,"2-chloro-4-amino-6,7-dimethoxyquinazoline",23680-84-4,90235,No,10.1021/acs.jced.0c00506
CNCCC(Oc1ccc(C(F)(F)F)cc1)c1ccccc1.Cl,278.15,ethanol,CCO,0.00945,0.16621252755256224,-0.7793362462443764,Fluoxetine hydrochloride,56296-78-7,62857,Yes,10.1021/acs.jced.0c00513
CNCCC(Oc1ccc(C(F)(F)F)cc1)c1ccccc1.Cl,283.15,ethanol,CCO,0.01241,0.21755619660925907,-0.6624285422729808,Fluoxetine hydrochloride,56296-78-7,62857,Yes,10.1021/acs.jced.0c00513