SMILES_Solute,Temperature_K,Solvent,SMILES_Solvent,Solubility(mole_fraction),Solubility(mol/L),LogS(mol/L),Compound_Name,CAS,PubChem_CID,FDA_Approved,Source
c1ccc(-c2cnc(-c3ccccc3)o2)cc1,298.15,ethanol,CCO,0.04,0.710374655408192,-0.14851254161672867,"2,5-diphenyl-1,3-oxazole (PPO)",92-71-7,7105,No,10.1016/j.molliq.2008.07.011
O=C(O)c1cn(C2CC2)c2cc(N3CCNCC3)c(F)cc2c1=O,293.15,ethanol,CCO,8.046e-06,0.00013789685937161115,-3.8604456248546875,Ciprofloxacin,85721-33-1,2764,Yes,10.1016/j.molliq.2010.06.004
O=C(O)c1cn(C2CC2)c2cc(N3CCNCC3)c(F)cc2c1=O,298.15,ethanol,CCO,1.022e-05,0.00017424247623662846,-3.758845965594143,Ciprofloxacin,85721-33-1,2764,Yes,10.1016/j.molliq.2010.06.004
O=C(O)c1cn(C2CC2)c2cc(N3CCNCC3)c(F)cc2c1=O,303.15,ethanol,CCO,1.259e-05,0.00021341150840117402,-3.6707821645724614,Ciprofloxacin,85721-33-1,2764,Yes,10.1016/j.molliq.2010.06.004
O=C(O)c1cn(C2CC2)c2cc(N3CCNCC3)c(F)cc2c1=O,308.15,ethanol,CCO,1.537e-05,0.00025903430543637335,-3.586642715937613,Ciprofloxacin,85721-33-1,2764,Yes,10.1016/j.molliq.2010.06.004
O=C(O)c1cn(C2CC2)c2cc(N3CCNCC3)c(F)cc2c1=O,313.15,ethanol,CCO,1.8540000000000002e-05,0.00031075637463380464,-3.5075799537888432,Ciprofloxacin,85721-33-1,2764,Yes,10.1016/j.molliq.2010.06.004
O=C(O)c1cn(C2CC2)c2cc(N3CCNCC3)c(F)cc2c1=O,318.15,ethanol,CCO,2.243e-05,0.0003737605703865795,-3.4274065161373524,Ciprofloxacin,85721-33-1,2764,Yes,10.1016/j.molliq.2010.06.004
O=C(O)c1cn(C2CC2)c2cc(N3CCNCC3)c(F)cc2c1=O,323.15,ethanol,CCO,2.712e-05,0.0004492944354023257,-3.347468960194042,Ciprofloxacin,85721-33-1,2764,Yes,10.1016/j.molliq.2010.06.004
O=C(O)c1cn(C2CC2)c2cc(N3CCNCC3)c(F)cc2c1=O,328.15,ethanol,CCO,3.242e-05,0.000533864623873654,-3.2725688563765587,Ciprofloxacin,85721-33-1,2764,Yes,10.1016/j.molliq.2010.06.004
O=C(O)c1cn(C2CC2)c2cc(N3CCNCC3)c(F)cc2c1=O,333.15,ethanol,CCO,3.8860000000000004e-05,0.000636374205287938,-3.196287432306644,Ciprofloxacin,85721-33-1,2764,Yes,10.1016/j.molliq.2010.06.004
Cc1cc(C)nc(NS(=O)(=O)c2ccc(N)cc2)n1,293.15,ethanol,CCO,9.41e-06,0.0001612740761425306,-3.7924354372798295,Sulfamethazine,57-68-1,5327,Yes,10.1016/j.molliq.2011.01.004
Cc1cc(C)nc(NS(=O)(=O)c2ccc(N)cc2)n1,298.15,ethanol,CCO,1.216e-05,0.0002073182604243735,-3.6833624439153976,Sulfamethazine,57-68-1,5327,Yes,10.1016/j.molliq.2011.01.004
Cc1cc(C)nc(NS(=O)(=O)c2ccc(N)cc2)n1,303.15,ethanol,CCO,1.516e-05,0.00025697591598541013,-3.590107577231984,Sulfamethazine,57-68-1,5327,Yes,10.1016/j.molliq.2011.01.004
Cc1cc(C)nc(NS(=O)(=O)c2ccc(N)cc2)n1,308.15,ethanol,CCO,1.925e-05,0.0003244261371044179,-3.48888416450108,Sulfamethazine,57-68-1,5327,Yes,10.1016/j.molliq.2011.01.004
Cc1cc(C)nc(NS(=O)(=O)c2ccc(N)cc2)n1,313.15,ethanol,CCO,2.383e-05,0.00039942629895486627,-3.3985633437843847,Sulfamethazine,57-68-1,5327,Yes,10.1016/j.molliq.2011.01.004
CC(C)=CCOc1c2occc2cc2ccc(=O)oc12,288.2,ethanol,CCO,0.0032473000000000003,0.05613908068997644,-1.2507347034675105,Imperatorin,482-44-0,10212,No,10.1016/j.molliq.2011.12.014
CC(C)=CCOc1c2occc2cc2ccc(=O)oc12,293.2,ethanol,CCO,0.0045372,0.07810814623125488,-1.1073036693392622,Imperatorin,482-44-0,10212,No,10.1016/j.molliq.2011.12.014
CC(C)=CCOc1c2occc2cc2ccc(=O)oc12,298.2,ethanol,CCO,0.0062956,0.10797002265529033,-0.966696807499645,Imperatorin,482-44-0,10212,No,10.1016/j.molliq.2011.12.014
CC(C)=CCOc1c2occc2cc2ccc(=O)oc12,303.2,ethanol,CCO,0.0086541,0.14794366016553664,-0.829903640940101,Imperatorin,482-44-0,10212,No,10.1016/j.molliq.2011.12.014
CC(C)=CCOc1c2occc2cc2ccc(=O)oc12,308.2,ethanol,CCO,0.011809,0.20138850494222643,-0.6959653221768078,Imperatorin,482-44-0,10212,No,10.1016/j.molliq.2011.12.014
CC(C)=CCOc1c2occc2cc2ccc(=O)oc12,313.2,ethanol,CCO,0.015964600000000002,0.27186844243030256,-0.565641200922181,Imperatorin,482-44-0,10212,No,10.1016/j.molliq.2011.12.014
CC(C)=CCOc1c2occc2cc2ccc(=O)oc12,318.2,ethanol,CCO,0.0215428,0.3668655360410258,-0.43549308467420006,Imperatorin,482-44-0,10212,No,10.1016/j.molliq.2011.12.014
CC(C)=CCOc1c2occc2cc2ccc(=O)oc12,323.2,ethanol,CCO,0.028778099999999997,0.49092064903272215,-0.3089887002848018,Imperatorin,482-44-0,10212,No,10.1016/j.molliq.2011.12.014
CC(C)=CCOc1c2occc2cc2ccc(=O)oc12,328.2,ethanol,CCO,0.0381571,0.6535001394173517,-0.18475431543128681,Imperatorin,482-44-0,10212,No,10.1016/j.molliq.2011.12.014
Nc1ccc(S(=O)(=O)Nc2ccccn2)cc1,293.15,ethanol,CCO,0.000338,0.005794745530585964,-2.2369656308114902,Sulfapyridine,144-83-2,5336,Yes,10.1016/j.molliq.2012.11.001
Nc1ccc(S(=O)(=O)Nc2ccccn2)cc1,298.15,ethanol,CCO,0.0004197,0.007158466237275421,-2.1451800190388,Sulfapyridine,144-83-2,5336,Yes,10.1016/j.molliq.2012.11.001
Nc1ccc(S(=O)(=O)Nc2ccccn2)cc1,303.15,ethanol,CCO,0.00049,0.008309895721789999,-2.0804044260035344,Sulfapyridine,144-83-2,5336,Yes,10.1016/j.molliq.2012.11.001
Nc1ccc(S(=O)(=O)Nc2ccccn2)cc1,308.15,ethanol,CCO,0.000584,0.00984789230522816,-2.006656709416797,Sulfapyridine,144-83-2,5336,Yes,10.1016/j.molliq.2012.11.001
Nc1ccc(S(=O)(=O)Nc2ccccn2)cc1,313.15,ethanol,CCO,0.000704,0.01180812045187232,-1.9278192253621014,Sulfapyridine,144-83-2,5336,Yes,10.1016/j.molliq.2012.11.001
CN1C(C(=O)Nc2ccccn2)=C(O)c2ccccc2S1(=O)=O,298.15,ethanol,CCO,0.00021400000000000002,0.0036492651729234803,-2.4377945775909104,Piroxicam,36322-90-4,54676228,Yes,10.1016/j.molliq.2012.12.028
O=c1c(-c2ccc(O)cc2)coc2cc(O)ccc12,288.2,ethanol,CCO,0.00023948,0.0041276567186965055,-2.3842964284775254,Daidzein,486-66-8,5281708,No,10.1016/j.molliq.2012.12.035
O=c1c(-c2ccc(O)cc2)coc2cc(O)ccc12,293.2,ethanol,CCO,0.00027015,0.004630797124107297,-2.3343442450934946,Daidzein,486-66-8,5281708,No,10.1016/j.molliq.2012.12.035
O=c1c(-c2ccc(O)cc2)coc2cc(O)ccc12,298.2,ethanol,CCO,0.00028781,0.0049063007953075955,-2.3092458296033906,Daidzein,486-66-8,5281708,No,10.1016/j.molliq.2012.12.035
O=c1c(-c2ccc(O)cc2)coc2cc(O)ccc12,303.2,ethanol,CCO,0.00032375,0.00548845448828475,-2.2605499327274106,Daidzein,486-66-8,5281708,No,10.1016/j.molliq.2012.12.035
O=c1c(-c2ccc(O)cc2)coc2cc(O)ccc12,308.2,ethanol,CCO,0.00035968,0.006063661849505765,-2.217265025876743,Daidzein,486-66-8,5281708,No,10.1016/j.molliq.2012.12.035
O=c1c(-c2ccc(O)cc2)coc2cc(O)ccc12,313.2,ethanol,CCO,0.00041925999999999997,0.007028732741530974,-2.1531229698552337,Daidzein,486-66-8,5281708,No,10.1016/j.molliq.2012.12.035
O=c1c(-c2ccc(O)cc2)coc2cc(O)ccc12,318.2,ethanol,CCO,0.0004911,0.00818709571387916,-2.0868701323212537,Daidzein,486-66-8,5281708,No,10.1016/j.molliq.2012.12.035
O=c1c(-c2ccc(O)cc2)coc2cc(O)ccc12,323.2,ethanol,CCO,0.0005576800000000001,0.00924474600637226,-2.0341050163107868,Daidzein,486-66-8,5281708,No,10.1016/j.molliq.2012.12.035
O=c1c(-c2ccc(O)cc2)coc2cc(O)ccc12,328.2,ethanol,CCO,0.00061987,0.010217493630901504,-1.9906556243347633,Daidzein,486-66-8,5281708,No,10.1016/j.molliq.2012.12.035
CCCCc1oc2ccccc2c1C(=O)c1cc(I)c(OCCN(CC)CC)c(I)c1.Cl,298.0,ethanol,CCO,0.001585,0.027060642999055924,-1.567661888166181,"2-Butyl-3-benzofuranyl 4-(2-(Diethylamino)ethoxy)-3,5-diiodophenyl Ketone Hydrochloride (Amiodarone HCl)",19774-82-4,441325,Yes,10.1016/j.molliq.2013.05.014
CCCCc1oc2ccccc2c1C(=O)c1cc(I)c(OCCN(CC)CC)c(I)c1.Cl,310.0,ethanol,CCO,0.005832,0.09865961767968041,-1.0058605718246867,"2-Butyl-3-benzofuranyl 4-(2-(Diethylamino)ethoxy)-3,5-diiodophenyl Ketone Hydrochloride (Amiodarone HCl)",19774-82-4,441325,Yes,10.1016/j.molliq.2013.05.014
Nc1ccc(S(=O)(=O)Nc2ncccn2)cc1,293.15,ethanol,CCO,6.26e-06,0.00010728719834950332,-3.9694520955349932,Sulfadiazine,68-35-9,5215,Yes,10.1016/j.molliq.2013.06.011
Nc1ccc(S(=O)(=O)Nc2ncccn2)cc1,298.15,ethanol,CCO,7.74e-06,0.00013196021736070813,-3.8795569777699312,Sulfadiazine,68-35-9,5215,Yes,10.1016/j.molliq.2013.06.011
Nc1ccc(S(=O)(=O)Nc2ncccn2)cc1,303.15,ethanol,CCO,9.460000000000001e-06,0.00016035476968572252,-3.7949181176352464,Sulfadiazine,68-35-9,5215,Yes,10.1016/j.molliq.2013.06.011
Nc1ccc(S(=O)(=O)Nc2ncccn2)cc1,308.15,ethanol,CCO,1.169e-05,0.00019701365562604703,-3.7055036705008355,Sulfadiazine,68-35-9,5215,Yes,10.1016/j.molliq.2013.06.011
Nc1ccc(S(=O)(=O)Nc2ncccn2)cc1,313.15,ethanol,CCO,1.3789999999999998e-05,0.00023113862193096176,-3.6361274803536086,Sulfadiazine,68-35-9,5215,Yes,10.1016/j.molliq.2013.06.011
OC[C@@H](O)[C@@H](O)[C@H](O)[C@@H](O)CO,278.15,ethanol,CCO,0.000598,0.010424838059718434,-1.9819306826675798,D-sorbitol,50-70-4,5780,Yes,10.1016/j.molliq.2013.07.014
OC[C@@H](O)[C@@H](O)[C@H](O)[C@@H](O)CO,283.15,ethanol,CCO,0.000753,0.013046634117878486,-1.8845015168757127,D-sorbitol,50-70-4,5780,Yes,10.1016/j.molliq.2013.07.014
OC[C@@H](O)[C@@H](O)[C@H](O)[C@@H](O)CO,288.15,ethanol,CCO,0.000944,0.016270872086848496,-1.788589169106415,D-sorbitol,50-70-4,5780,Yes,10.1016/j.molliq.2013.07.014
OC[C@@H](O)[C@@H](O)[C@H](O)[C@@H](O)CO,293.15,ethanol,CCO,0.001168,0.020041085819316427,-1.6980787522377954,D-sorbitol,50-70-4,5780,Yes,10.1016/j.molliq.2013.07.014
OC[C@@H](O)[C@@H](O)[C@H](O)[C@@H](O)CO,298.15,ethanol,CCO,0.001463,0.024979219498819212,-1.6024211357237557,D-sorbitol,50-70-4,5780,Yes,10.1016/j.molliq.2013.07.014
OC[C@@H](O)[C@@H](O)[C@H](O)[C@@H](O)CO,303.15,ethanol,CCO,0.001806,0.030668280617719475,-1.5133105715613122,D-sorbitol,50-70-4,5780,Yes,10.1016/j.molliq.2013.07.014
COc1ccccc1OCC(O)COC(N)=O,298.15,ethanol,CCO,0.004357000000000001,0.07460752193981561,-1.1272173846952511,Methocarbamol,532-03-6,4107,Yes,10.1016/j.molliq.2013.10.012
N#CNC(=N)N,278.15,ethanol,CCO,0.0037440000000000004,0.06547465785572733,-1.1839267623453857,2-cyanoguanidine,461-58-5,10005,No,10.1016/j.molliq.2013.11.029
N#CNC(=N)N,283.15,ethanol,CCO,0.004031,0.07007181022348483,-1.1544566628701252,2-cyanoguanidine,461-58-5,10005,No,10.1016/j.molliq.2013.11.029
N#CNC(=N)N,288.15,ethanol,CCO,0.004494,0.07773522414379769,-1.1093821448432695,2-cyanoguanidine,461-58-5,10005,No,10.1016/j.molliq.2013.11.029
N#CNC(=N)N,293.15,ethanol,CCO,0.0049299999999999995,0.08491103581342814,-1.0710358612118294,2-cyanoguanidine,461-58-5,10005,No,10.1016/j.molliq.2013.11.029
N#CNC(=N)N,298.15,ethanol,CCO,0.005912,0.10139307496575509,-0.9939917058198605,2-cyanoguanidine,461-58-5,10005,No,10.1016/j.molliq.2013.11.029
N#CNC(=N)N,303.15,ethanol,CCO,0.006543,0.11163862622587592,-0.9521855163807582,2-cyanoguanidine,461-58-5,10005,No,10.1016/j.molliq.2013.11.029
N#CNC(=N)N,308.15,ethanol,CCO,0.007382,0.12533392370087615,-0.9019313641050682,2-cyanoguanidine,461-58-5,10005,No,10.1016/j.molliq.2013.11.029
N#CNC(=N)N,313.15,ethanol,CCO,0.008048,0.13598768319577603,-0.866500425176434,2-cyanoguanidine,461-58-5,10005,No,10.1016/j.molliq.2013.11.029
N#CNC(=N)N,318.15,ethanol,CCO,0.008827,0.14839461192302789,-0.828581867618841,2-cyanoguanidine,461-58-5,10005,No,10.1016/j.molliq.2013.11.029
N#CNC(=N)N,323.15,ethanol,CCO,0.009703,0.16231929372958084,-0.7896298556371862,2-cyanoguanidine,461-58-5,10005,No,10.1016/j.molliq.2013.11.029
COc1cc(C2Oc3cc(C4Oc5cc(O)cc(O)c5C(=O)C4O)ccc3OC2CO)ccc1O,298.15,ethanol,CCO,0.0167,0.2895537088249805,-0.5382708679196674,Silymarin,65666-07-1,5213,No,10.1016/j.molliq.2014.02.039
COc1cc(C2Oc3cc(C4Oc5cc(O)cc(O)c5C(=O)C4O)ccc3OC2CO)ccc1O,303.15,ethanol,CCO,0.0174,0.30016436066791147,-0.5226408739984743,Silymarin,65666-07-1,5213,No,10.1016/j.molliq.2014.02.039
COc1cc(C2Oc3cc(C4Oc5cc(O)cc(O)c5C(=O)C4O)ccc3OC2CO)ccc1O,313.15,ethanol,CCO,0.019299999999999998,0.32985524808771216,-0.4816766017839153,Silymarin,65666-07-1,5213,No,10.1016/j.molliq.2014.02.039
COc1cc(C2Oc3cc(C4Oc5cc(O)cc(O)c5C(=O)C4O)ccc3OC2CO)ccc1O,323.15,ethanol,CCO,0.0208,0.35190181479698607,-0.45357849345385487,Silymarin,65666-07-1,5213,No,10.1016/j.molliq.2014.02.039
COc1cc(C2Oc3cc(C4Oc5cc(O)cc(O)c5C(=O)C4O)ccc3OC2CO)ccc1O,333.15,ethanol,CCO,0.0227,0.3803565091327503,-0.4198091471590691,Silymarin,65666-07-1,5213,No,10.1016/j.molliq.2014.02.039
Cc1cnc(NC(=O)C2=C(O)c3ccccc3S(=O)(=O)N2C)s1,293.15,ethanol,CCO,4.47e-05,0.0007661217448279974,-3.115702210908219,Meloxicam,71125-38-7,54677470,Yes,10.1016/j.molliq.2014.10.010
Cc1cnc(NC(=O)C2=C(O)c3ccccc3S(=O)(=O)N2C)s1,298.15,ethanol,CCO,5.6699999999999996e-05,0.0009667326448204289,-3.0146936158169613,Meloxicam,71125-38-7,54677470,Yes,10.1016/j.molliq.2014.10.010
Cc1cnc(NC(=O)C2=C(O)c3ccccc3S(=O)(=O)N2C)s1,303.15,ethanol,CCO,7.52e-05,0.0012747855684483217,-2.8945628617175516,Meloxicam,71125-38-7,54677470,Yes,10.1016/j.molliq.2014.10.010
Cc1cnc(NC(=O)C2=C(O)c3ccccc3S(=O)(=O)N2C)s1,308.15,ethanol,CCO,9.37e-05,0.0015792723347606136,-2.801542972407507,Meloxicam,71125-38-7,54677470,Yes,10.1016/j.molliq.2014.10.010
Cc1cnc(NC(=O)C2=C(O)c3ccccc3S(=O)(=O)N2C)s1,313.15,ethanol,CCO,0.0001226,0.0020551616273042812,-2.687154017541625,Meloxicam,71125-38-7,54677470,Yes,10.1016/j.molliq.2014.10.010
Cc1c(O)c(=O)ccn1C,298.2,ethanol,CCO,0.0014,0.023892398658096933,-1.6217402474170455,Deferiprone,30652-11-0,2972,Yes,10.1016/j.molliq.2014.12.034
C[C@@H]1O[C@@H](O[C@H]2[C@H](Oc3cc(O)c4c(c3)O[C@H](c3ccc(O)cc3)CC4=O)O[C@H](CO)[C@@H](O)[C@@H]2O)[C@H](O)[C@H](O)[C@H]1O,283.15,ethanol,CCO,2.262e-05,0.00039163255362080674,-3.407121215565845,Naringin,10236-47-2,442428,No,10.1016/j.molliq.2014.12.039
C[C@@H]1O[C@@H](O[C@H]2[C@H](Oc3cc(O)c4c(c3)O[C@H](c3ccc(O)cc3)CC4=O)O[C@H](CO)[C@@H](O)[C@@H]2O)[C@H](O)[C@H](O)[C@H]1O,288.15,ethanol,CCO,2.571e-05,0.00044273301760477853,-3.353858088527464,Naringin,10236-47-2,442428,No,10.1016/j.molliq.2014.12.039
C[C@@H]1O[C@@H](O[C@H]2[C@H](Oc3cc(O)c4c(c3)O[C@H](c3ccc(O)cc3)CC4=O)O[C@H](CO)[C@@H](O)[C@@H]2O)[C@H](O)[C@H](O)[C@H]1O,293.15,ethanol,CCO,3.452e-05,0.0005916387784467134,-3.2279433682899366,Naringin,10236-47-2,442428,No,10.1016/j.molliq.2014.12.039
C[C@@H]1O[C@@H](O[C@H]2[C@H](Oc3cc(O)c4c(c3)O[C@H](c3ccc(O)cc3)CC4=O)O[C@H](CO)[C@@H](O)[C@@H]2O)[C@H](O)[C@H](O)[C@H]1O,298.15,ethanol,CCO,4.047e-05,0.0006900006196299452,-3.1611505192602154,Naringin,10236-47-2,442428,No,10.1016/j.molliq.2014.12.039
C[C@@H]1O[C@@H](O[C@H]2[C@H](Oc3cc(O)c4c(c3)O[C@H](c3ccc(O)cc3)CC4=O)O[C@H](CO)[C@@H](O)[C@@H]2O)[C@H](O)[C@H](O)[C@H]1O,303.15,ethanol,CCO,5.166e-05,0.0008757163849641767,-3.0576365244125046,Naringin,10236-47-2,442428,No,10.1016/j.molliq.2014.12.039
C[C@@H]1O[C@@H](O[C@H]2[C@H](Oc3cc(O)c4c(c3)O[C@H](c3ccc(O)cc3)CC4=O)O[C@H](CO)[C@@H](O)[C@@H]2O)[C@H](O)[C@H](O)[C@H]1O,308.15,ethanol,CCO,6.245e-05,0.0010525344190464095,-2.9777636933473848,Naringin,10236-47-2,442428,No,10.1016/j.molliq.2014.12.039
C[C@@H]1O[C@@H](O[C@H]2[C@H](Oc3cc(O)c4c(c3)O[C@H](c3ccc(O)cc3)CC4=O)O[C@H](CO)[C@@H](O)[C@@H]2O)[C@H](O)[C@H](O)[C@H]1O,313.15,ethanol,CCO,7.959e-05,0.0013341213556115276,-2.8748046639162443,Naringin,10236-47-2,442428,No,10.1016/j.molliq.2014.12.039
C[C@@H]1O[C@@H](O[C@H]2[C@H](Oc3cc(O)c4c(c3)O[C@H](c3ccc(O)cc3)CC4=O)O[C@H](CO)[C@@H](O)[C@@H]2O)[C@H](O)[C@H](O)[C@H]1O,318.15,ethanol,CCO,0.00010212,0.0017018043424281955,-2.769090372505421,Naringin,10236-47-2,442428,No,10.1016/j.molliq.2014.12.039
O=P(NC1CCCCC1)(Oc1ccccc1)Oc1ccccc1,293.15,ethanol,CCO,0.03585,0.6372581625274648,-0.19568459302160895,Cyclohexyl-phosphoramidic acid diphenyl ester,6372-21-0,219231,No,10.1016/j.molliq.2015.05.024
O=P(NC1CCCCC1)(Oc1ccccc1)Oc1ccccc1,298.15,ethanol,CCO,0.048979999999999996,0.8780673539204621,-0.056472169385392346,Cyclohexyl-phosphoramidic acid diphenyl ester,6372-21-0,219231,No,10.1016/j.molliq.2015.05.024
O=P(NC1CCCCC1)(Oc1ccccc1)Oc1ccccc1,303.15,ethanol,CCO,0.06378,1.1547640045634873,0.06249323791816263,Cyclohexyl-phosphoramidic acid diphenyl ester,6372-21-0,219231,No,10.1016/j.molliq.2015.05.024
O=P(NC1CCCCC1)(Oc1ccccc1)Oc1ccccc1,308.15,ethanol,CCO,0.08669,1.5996594336496797,0.20402753151211295,Cyclohexyl-phosphoramidic acid diphenyl ester,6372-21-0,219231,No,10.1016/j.molliq.2015.05.024
O=P(NC1CCCCC1)(Oc1ccccc1)Oc1ccccc1,313.15,ethanol,CCO,0.1155,2.1887008747576155,0.3401864114907637,Cyclohexyl-phosphoramidic acid diphenyl ester,6372-21-0,219231,No,10.1016/j.molliq.2015.05.024
O=P(NC1CCCCC1)(Oc1ccccc1)Oc1ccccc1,318.15,ethanol,CCO,0.1531,3.012295179290032,0.4788975267768805,Cyclohexyl-phosphoramidic acid diphenyl ester,6372-21-0,219231,No,10.1016/j.molliq.2015.05.024
O=P(NC1CCCCC1)(Oc1ccccc1)Oc1ccccc1,323.15,ethanol,CCO,0.19640000000000002,4.0488448187761215,0.607331131759589,Cyclohexyl-phosphoramidic acid diphenyl ester,6372-21-0,219231,No,10.1016/j.molliq.2015.05.024
O=P(NC1CCCCC1)(Oc1ccccc1)Oc1ccccc1,328.15,ethanol,CCO,0.253,5.577042735762488,0.7464039724160219,Cyclohexyl-phosphoramidic acid diphenyl ester,6372-21-0,219231,No,10.1016/j.molliq.2015.05.024
O=P(NC1CCCCC1)(Oc1ccccc1)Oc1ccccc1,333.15,ethanol,CCO,0.31670000000000004,7.589786109654485,0.8802295370673276,Cyclohexyl-phosphoramidic acid diphenyl ester,6372-21-0,219231,No,10.1016/j.molliq.2015.05.024
O=P(NC1CCCCC1)(Oc1ccccc1)Oc1ccccc1,338.15,ethanol,CCO,0.4058,11.121143413016199,1.0461494412419856,Cyclohexyl-phosphoramidic acid diphenyl ester,6372-21-0,219231,No,10.1016/j.molliq.2015.05.024
CN1C(C(=O)Nc2ccccn2)=C(O)c2sc(Cl)cc2S1(=O)=O,298.15,ethanol,CCO,8.429999999999999e-06,0.0001437242118772915,-3.8424700641624665,Lornoxicam,70374-39-9,54690031,Yes,10.1016/j.molliq.2015.05.035
CN1C(C(=O)Nc2ccccn2)=C(O)c2sc(Cl)cc2S1(=O)=O,303.15,ethanol,CCO,1.1599999999999999e-05,0.00019662994810225787,-3.706350335410143,Lornoxicam,70374-39-9,54690031,Yes,10.1016/j.molliq.2015.05.035
CN1C(C(=O)Nc2ccccn2)=C(O)c2sc(Cl)cc2S1(=O)=O,308.15,ethanol,CCO,1.45e-05,0.00024437177365401873,-3.6119489590442257,Lornoxicam,70374-39-9,54690031,Yes,10.1016/j.molliq.2015.05.035
CN1C(C(=O)Nc2ccccn2)=C(O)c2sc(Cl)cc2S1(=O)=O,313.15,ethanol,CCO,1.98e-05,0.0003318761580718917,-3.4790239461142534,Lornoxicam,70374-39-9,54690031,Yes,10.1016/j.molliq.2015.05.035
CN1C(C(=O)Nc2ccccn2)=C(O)c2sc(Cl)cc2S1(=O)=O,323.15,ethanol,CCO,3.2200000000000003e-05,0.0005334570175556058,-3.2729005674118303,Lornoxicam,70374-39-9,54690031,Yes,10.1016/j.molliq.2015.05.035
C=CC(=O)N1CCC[C@@H](n2nc(-c3ccc(Oc4ccccc4)cc3)c3c(N)ncnc32)C1,298.15,ethanol,CCO,0.00312,0.05335933532317372,-1.2727895888980254,Ibrutinib,936563-96-1,24821094,Yes,10.1016/j.molliq.2015.06.016
C=CC(=O)N1CCC[C@@H](n2nc(-c3ccc(Oc4ccccc4)cc3)c3c(N)ncnc32)C1,303.15,ethanol,CCO,0.0035600000000000002,0.060559946445008124,-1.2178145175675565,Ibrutinib,936563-96-1,24821094,Yes,10.1016/j.molliq.2015.06.016
C=CC(=O)N1CCC[C@@H](n2nc(-c3ccc(Oc4ccccc4)cc3)c3c(N)ncnc32)C1,308.15,ethanol,CCO,0.00396,0.06700313876348067,-1.1739048522882658,Ibrutinib,936563-96-1,24821094,Yes,10.1016/j.molliq.2015.06.016
C=CC(=O)N1CCC[C@@H](n2nc(-c3ccc(Oc4ccccc4)cc3)c3c(N)ncnc32)C1,313.15,ethanol,CCO,0.00447,0.07525847881191093,-1.1234445642551887,Ibrutinib,936563-96-1,24821094,Yes,10.1016/j.molliq.2015.06.016
C=CC(=O)N1CCC[C@@H](n2nc(-c3ccc(Oc4ccccc4)cc3)c3c(N)ncnc32)C1,323.15,ethanol,CCO,0.00551,0.091786911088808,-1.0372192452387279,Ibrutinib,936563-96-1,24821094,Yes,10.1016/j.molliq.2015.06.016
O=C1c2c(O)cc(O)cc2O[C@H](c2cc(O)c(O)c(O)c2)[C@H]1O,288.15,ethanol,CCO,0.0248,0.43791180939116703,-0.3586133428091008,Dihydromyricetin,27200-12-0,161557,No,10.1016/j.molliq.2015.07.007
O=C1c2c(O)cc(O)cc2O[C@H](c2cc(O)c(O)c(O)c2)[C@H]1O,293.15,ethanol,CCO,0.0263,0.4629151891294029,-0.33449856895393454,Dihydromyricetin,27200-12-0,161557,No,10.1016/j.molliq.2015.07.007
O=C1c2c(O)cc(O)cc2O[C@H](c2cc(O)c(O)c(O)c2)[C@H]1O,298.15,ethanol,CCO,0.0297,0.5218541217921872,-0.2824508819686315,Dihydromyricetin,27200-12-0,161557,No,10.1016/j.molliq.2015.07.007
O=C1c2c(O)cc(O)cc2O[C@H](c2cc(O)c(O)c(O)c2)[C@H]1O,303.15,ethanol,CCO,0.034300000000000004,0.6020582697546264,-0.2203614738447763,Dihydromyricetin,27200-12-0,161557,No,10.1016/j.molliq.2015.07.007
O=C1c2c(O)cc(O)cc2O[C@H](c2cc(O)c(O)c(O)c2)[C@H]1O,308.15,ethanol,CCO,0.0398,0.6985509889806987,-0.15580188815430293,Dihydromyricetin,27200-12-0,161557,No,10.1016/j.molliq.2015.07.007
O=C1c2c(O)cc(O)cc2O[C@H](c2cc(O)c(O)c(O)c2)[C@H]1O,313.15,ethanol,CCO,0.0444,0.7787697855186392,-0.10859090645487791,Dihydromyricetin,27200-12-0,161557,No,10.1016/j.molliq.2015.07.007
O=C1c2c(O)cc(O)cc2O[C@H](c2cc(O)c(O)c(O)c2)[C@H]1O,318.15,ethanol,CCO,0.0483,0.8456711801059573,-0.07279846961474584,Dihydromyricetin,27200-12-0,161557,No,10.1016/j.molliq.2015.07.007