SMILES_Solute,Temperature_K,Solvent,SMILES_Solvent,Solubility(mole_fraction),Solubility(mol/L),LogS(mol/L),Compound_Name,CAS,PubChem_CID,FDA_Approved,Source
Nc1nnc[nH]1,288.15,ethanol,CCO,0.01432,0.25017029598289314,-0.6017642576184133,"3-amino-1,2,4-triazole",61-82-5,1639,No,10.1016/j.jct.2016.09.033
Nc1nnc[nH]1,290.65,ethanol,CCO,0.01648,0.2879595635513798,-0.5406684933500125,"3-amino-1,2,4-triazole",61-82-5,1639,No,10.1016/j.jct.2016.09.033
Nc1nnc[nH]1,293.15,ethanol,CCO,0.01875,0.3274857859983771,-0.48480754512696045,"3-amino-1,2,4-triazole",61-82-5,1639,No,10.1016/j.jct.2016.09.033
Nc1nnc[nH]1,295.65,ethanol,CCO,0.02129,0.37177122212505076,-0.42972423090624245,"3-amino-1,2,4-triazole",61-82-5,1639,No,10.1016/j.jct.2016.09.033
Nc1nnc[nH]1,298.15,ethanol,CCO,0.02395,0.4183426586021502,-0.3784678479440776,"3-amino-1,2,4-triazole",61-82-5,1639,No,10.1016/j.jct.2016.09.033
Nc1nnc[nH]1,300.65,ethanol,CCO,0.02691,0.47000024668058227,-0.3279019141238835,"3-amino-1,2,4-triazole",61-82-5,1639,No,10.1016/j.jct.2016.09.033
Nc1nnc[nH]1,303.15,ethanol,CCO,0.03021,0.5280312931200459,-0.2773403387793704,"3-amino-1,2,4-triazole",61-82-5,1639,No,10.1016/j.jct.2016.09.033
Nc1nnc[nH]1,305.65,ethanol,CCO,0.03378,0.590868394894923,-0.22850923948356416,"3-amino-1,2,4-triazole",61-82-5,1639,No,10.1016/j.jct.2016.09.033
Nc1nnc[nH]1,308.15,ethanol,CCO,0.03784,0.6627970567059819,-0.17861942882721638,"3-amino-1,2,4-triazole",61-82-5,1639,No,10.1016/j.jct.2016.09.033
Nc1nnc[nH]1,310.65,ethanol,CCO,0.04204,0.7375280369264251,-0.1322214654501465,"3-amino-1,2,4-triazole",61-82-5,1639,No,10.1016/j.jct.2016.09.033
Nc1nnc[nH]1,313.15,ethanol,CCO,0.04693,0.8253307368512116,-0.08337198065546526,"3-amino-1,2,4-triazole",61-82-5,1639,No,10.1016/j.jct.2016.09.033
Nc1nnc[nH]1,315.65,ethanol,CCO,0.05163,0.909766108025447,-0.041070246195550046,"3-amino-1,2,4-triazole",61-82-5,1639,No,10.1016/j.jct.2016.09.033
Nc1nnc[nH]1,318.15,ethanol,CCO,0.05691,1.0055181511606093,0.002389914691828471,"3-amino-1,2,4-triazole",61-82-5,1639,No,10.1016/j.jct.2016.09.033
CC(C)(C)[C@H](O)[C@H](Cc1ccc(Cl)cc1)n1cncn1,278.15,ethanol,CCO,0.007495,0.13156709374413003,-0.8808527185667264,Paclobutrazol,66346-05-2,73671,No,10.1016/j.jct.2016.09.038
CC(C)(C)[C@H](O)[C@H](Cc1ccc(Cl)cc1)n1cncn1,280.65,ethanol,CCO,0.008102,0.14192206012614403,-0.8479500932922062,Paclobutrazol,66346-05-2,73671,No,10.1016/j.jct.2016.09.038
CC(C)(C)[C@H](O)[C@H](Cc1ccc(Cl)cc1)n1cncn1,283.15,ethanol,CCO,0.008848,0.1545543426419249,-0.8109187876959297,Paclobutrazol,66346-05-2,73671,No,10.1016/j.jct.2016.09.038
CC(C)(C)[C@H](O)[C@H](Cc1ccc(Cl)cc1)n1cncn1,285.65,ethanol,CCO,0.009785,0.17075717410645272,-0.7676210410321171,Paclobutrazol,66346-05-2,73671,No,10.1016/j.jct.2016.09.038
CC(C)(C)[C@H](O)[C@H](Cc1ccc(Cl)cc1)n1cncn1,288.15,ethanol,CCO,0.01067,0.18571710696885357,-0.731148090229043,Paclobutrazol,66346-05-2,73671,No,10.1016/j.jct.2016.09.038
CC(C)(C)[C@H](O)[C@H](Cc1ccc(Cl)cc1)n1cncn1,290.65,ethanol,CCO,0.01171,0.20362448042333373,-0.6911700108458257,Paclobutrazol,66346-05-2,73671,No,10.1016/j.jct.2016.09.038
CC(C)(C)[C@H](O)[C@H](Cc1ccc(Cl)cc1)n1cncn1,293.15,ethanol,CCO,0.01276,0.22151277798247937,-0.6546012164060648,Paclobutrazol,66346-05-2,73671,No,10.1016/j.jct.2016.09.038
CC(C)(C)[C@H](O)[C@H](Cc1ccc(Cl)cc1)n1cncn1,295.65,ethanol,CCO,0.01382,0.2395002581033451,-0.6206940142210332,Paclobutrazol,66346-05-2,73671,No,10.1016/j.jct.2016.09.038
CC(C)(C)[C@H](O)[C@H](Cc1ccc(Cl)cc1)n1cncn1,298.15,ethanol,CCO,0.01486,0.2571695567176011,-0.5897804437263774,Paclobutrazol,66346-05-2,73671,No,10.1016/j.jct.2016.09.038
CC(C)(C)[C@H](O)[C@H](Cc1ccc(Cl)cc1)n1cncn1,300.65,ethanol,CCO,0.016,0.27635178994263193,-0.5585377181287395,Paclobutrazol,66346-05-2,73671,No,10.1016/j.jct.2016.09.038
CC(C)(C)[C@H](O)[C@H](Cc1ccc(Cl)cc1)n1cncn1,303.15,ethanol,CCO,0.01729,0.2982333832830964,-0.5254437446383334,Paclobutrazol,66346-05-2,73671,No,10.1016/j.jct.2016.09.038
CC(C)(C)[C@H](O)[C@H](Cc1ccc(Cl)cc1)n1cncn1,305.65,ethanol,CCO,0.01853,0.31908436765321363,-0.4960944719213366,Paclobutrazol,66346-05-2,73671,No,10.1016/j.jct.2016.09.038
CC(C)(C)[C@H](O)[C@H](Cc1ccc(Cl)cc1)n1cncn1,308.15,ethanol,CCO,0.01999,0.3437629188838946,-0.4637409717229579,Paclobutrazol,66346-05-2,73671,No,10.1016/j.jct.2016.09.038
CC(C)(C)[C@H](O)[C@H](Cc1ccc(Cl)cc1)n1cncn1,310.65,ethanol,CCO,0.02139,0.3673367148971564,-0.4349356622336179,Paclobutrazol,66346-05-2,73671,No,10.1016/j.jct.2016.09.038
CC(C)(C)[C@H](O)[C@H](Cc1ccc(Cl)cc1)n1cncn1,313.15,ethanol,CCO,0.0229,0.39282465120753784,-0.40580126643630504,Paclobutrazol,66346-05-2,73671,No,10.1016/j.jct.2016.09.038
CC(C)(C)[C@H](O)[C@H](Cc1ccc(Cl)cc1)n1cncn1,315.65,ethanol,CCO,0.02457,0.4209344631220513,-0.3757855158508904,Paclobutrazol,66346-05-2,73671,No,10.1016/j.jct.2016.09.038
CC(C)(C)[C@H](O)[C@H](Cc1ccc(Cl)cc1)n1cncn1,318.15,ethanol,CCO,0.0265,0.45359095632248897,-0.34333561297404147,Paclobutrazol,66346-05-2,73671,No,10.1016/j.jct.2016.09.038
Cn1cnc([N+](=O)[O-])c1Cl,283.15,ethanol,CCO,0.002184,0.037894704990832494,-1.4214214695547807,5-chloro-1-methyl-4-nitroimidazole,4897-25-0,21010,No,10.1016/j.jct.2016.10.006
Cn1cnc([N+](=O)[O-])c1Cl,285.65,ethanol,CCO,0.002354,0.04077346524218889,-1.3896223772991607,5-chloro-1-methyl-4-nitroimidazole,4897-25-0,21010,No,10.1016/j.jct.2016.10.006
Cn1cnc([N+](=O)[O-])c1Cl,288.15,ethanol,CCO,0.002588,0.04468053369658065,-1.3498816479983333,5-chloro-1-methyl-4-nitroimidazole,4897-25-0,21010,No,10.1016/j.jct.2016.10.006
Cn1cnc([N+](=O)[O-])c1Cl,290.65,ethanol,CCO,0.002827,0.04872061847799054,-1.3122872072414864,5-chloro-1-methyl-4-nitroimidazole,4897-25-0,21010,No,10.1016/j.jct.2016.10.006
Cn1cnc([N+](=O)[O-])c1Cl,293.15,ethanol,CCO,0.003131,0.05382894020038883,-1.268984170614443,5-chloro-1-methyl-4-nitroimidazole,4897-25-0,21010,No,10.1016/j.jct.2016.10.006
Cn1cnc([N+](=O)[O-])c1Cl,295.65,ethanol,CCO,0.003473,0.05956207878375254,-1.2250301532879244,5-chloro-1-methyl-4-nitroimidazole,4897-25-0,21010,No,10.1016/j.jct.2016.10.006
Cn1cnc([N+](=O)[O-])c1Cl,298.15,ethanol,CCO,0.003813,0.0652566289920612,-1.185375364626589,5-chloro-1-methyl-4-nitroimidazole,4897-25-0,21010,No,10.1016/j.jct.2016.10.006
Cn1cnc([N+](=O)[O-])c1Cl,300.65,ethanol,CCO,0.004173,0.07121998619738376,-1.147398114829143,5-chloro-1-methyl-4-nitroimidazole,4897-25-0,21010,No,10.1016/j.jct.2016.10.006
Cn1cnc([N+](=O)[O-])c1Cl,303.15,ethanol,CCO,0.004559,0.07763198757110965,-1.109959294680132,5-chloro-1-methyl-4-nitroimidazole,4897-25-0,21010,No,10.1016/j.jct.2016.10.006
Cn1cnc([N+](=O)[O-])c1Cl,305.65,ethanol,CCO,0.004972,0.08445064212974522,-1.0733970438745617,5-chloro-1-methyl-4-nitroimidazole,4897-25-0,21010,No,10.1016/j.jct.2016.10.006
Cn1cnc([N+](=O)[O-])c1Cl,308.15,ethanol,CCO,0.005388,0.09129576535328655,-1.0395493662373514,5-chloro-1-methyl-4-nitroimidazole,4897-25-0,21010,No,10.1016/j.jct.2016.10.006
Cn1cnc([N+](=O)[O-])c1Cl,310.65,ethanol,CCO,0.005874,0.09930147795630652,-1.0030442876225265,5-chloro-1-methyl-4-nitroimidazole,4897-25-0,21010,No,10.1016/j.jct.2016.10.006
Cn1cnc([N+](=O)[O-])c1Cl,313.15,ethanol,CCO,0.006431,0.10848825938540038,-0.9646172586820488,5-chloro-1-methyl-4-nitroimidazole,4897-25-0,21010,No,10.1016/j.jct.2016.10.006
Cn1cnc([N+](=O)[O-])c1Cl,315.65,ethanol,CCO,0.007048,0.11861594594827374,-0.9258569233509177,5-chloro-1-methyl-4-nitroimidazole,4897-25-0,21010,No,10.1016/j.jct.2016.10.006
Cn1cnc([N+](=O)[O-])c1Cl,318.15,ethanol,CCO,0.00784,0.13167060092570101,-0.8805111823732359,5-chloro-1-methyl-4-nitroimidazole,4897-25-0,21010,No,10.1016/j.jct.2016.10.006
CC(C)C(=O)OCC(=O)[C@@]12O[C@H](C3CCCCC3)O[C@@H]1C[C@H]1[C@@H]3CCC4=CC(=O)C=C[C@]4(C)[C@H]3[C@@H](O)C[C@@]12C,278.15,ethanol,CCO,0.00231,0.04033896101859954,-1.3942752917876038,Ciclesonide,126544-47-6,6918155,Yes,10.1016/j.jct.2016.10.014
CC(C)C(=O)OCC(=O)[C@@]12O[C@H](C3CCCCC3)O[C@@H]1C[C@H]1[C@@H]3CCC4=CC(=O)C=C[C@]4(C)[C@H]3[C@@H](O)C[C@@]12C,280.65,ethanol,CCO,0.00276,0.048087707627508296,-1.3179659255349023,Ciclesonide,126544-47-6,6918155,Yes,10.1016/j.jct.2016.10.014
CC(C)C(=O)OCC(=O)[C@@]12O[C@H](C3CCCCC3)O[C@@H]1C[C@H]1[C@@H]3CCC4=CC(=O)C=C[C@]4(C)[C@H]3[C@@H](O)C[C@@]12C,283.15,ethanol,CCO,0.00333,0.057845450460193286,-1.2377307925934944,Ciclesonide,126544-47-6,6918155,Yes,10.1016/j.jct.2016.10.014
CC(C)C(=O)OCC(=O)[C@@]12O[C@H](C3CCCCC3)O[C@@H]1C[C@H]1[C@@H]3CCC4=CC(=O)C=C[C@]4(C)[C@H]3[C@@H](O)C[C@@]12C,285.65,ethanol,CCO,0.00398,0.06904983462470136,-1.1608373572253303,Ciclesonide,126544-47-6,6918155,Yes,10.1016/j.jct.2016.10.014
CC(C)C(=O)OCC(=O)[C@@]12O[C@H](C3CCCCC3)O[C@@H]1C[C@H]1[C@@H]3CCC4=CC(=O)C=C[C@]4(C)[C@H]3[C@@H](O)C[C@@]12C,288.15,ethanol,CCO,0.00478,0.08270608635719515,-1.0824625294549148,Ciclesonide,126544-47-6,6918155,Yes,10.1016/j.jct.2016.10.014
CC(C)C(=O)OCC(=O)[C@@]12O[C@H](C3CCCCC3)O[C@@H]1C[C@H]1[C@@H]3CCC4=CC(=O)C=C[C@]4(C)[C@H]3[C@@H](O)C[C@@]12C,290.65,ethanol,CCO,0.00568,0.09817019547743691,-1.0080203442332083,Ciclesonide,126544-47-6,6918155,Yes,10.1016/j.jct.2016.10.014
CC(C)C(=O)OCC(=O)[C@@]12O[C@H](C3CCCCC3)O[C@@H]1C[C@H]1[C@@H]3CCC4=CC(=O)C=C[C@]4(C)[C@H]3[C@@H](O)C[C@@]12C,293.15,ethanol,CCO,0.00674,0.11629681017651058,-0.9344321970663757,Ciclesonide,126544-47-6,6918155,Yes,10.1016/j.jct.2016.10.014
CC(C)C(=O)OCC(=O)[C@@]12O[C@H](C3CCCCC3)O[C@@H]1C[C@H]1[C@@H]3CCC4=CC(=O)C=C[C@]4(C)[C@H]3[C@@H](O)C[C@@]12C,295.65,ethanol,CCO,0.00796,0.1371317497489423,-0.8628619825233318,Ciclesonide,126544-47-6,6918155,Yes,10.1016/j.jct.2016.10.014
CC(C)C(=O)OCC(=O)[C@@]12O[C@H](C3CCCCC3)O[C@@H]1C[C@H]1[C@@H]3CCC4=CC(=O)C=C[C@]4(C)[C@H]3[C@@H](O)C[C@@]12C,298.15,ethanol,CCO,0.00937,0.16126005926349313,-0.7924731849322797,Ciclesonide,126544-47-6,6918155,Yes,10.1016/j.jct.2016.10.014
CC(C)C(=O)OCC(=O)[C@@]12O[C@H](C3CCCCC3)O[C@@H]1C[C@H]1[C@@H]3CCC4=CC(=O)C=C[C@]4(C)[C@H]3[C@@H](O)C[C@@]12C,300.65,ethanol,CCO,0.011,0.18903133053204293,-0.7234662087922773,Ciclesonide,126544-47-6,6918155,Yes,10.1016/j.jct.2016.10.014
CC(C)C(=O)OCC(=O)[C@@]12O[C@H](C3CCCCC3)O[C@@H]1C[C@H]1[C@@H]3CCC4=CC(=O)C=C[C@]4(C)[C@H]3[C@@H](O)C[C@@]12C,303.15,ethanol,CCO,0.0129,0.22152114927510508,-0.654584804091023,Ciclesonide,126544-47-6,6918155,Yes,10.1016/j.jct.2016.10.014
CC(C)C(=O)OCC(=O)[C@@]12O[C@H](C3CCCCC3)O[C@@H]1C[C@H]1[C@@H]3CCC4=CC(=O)C=C[C@]4(C)[C@H]3[C@@H](O)C[C@@]12C,305.65,ethanol,CCO,0.0151,0.25911463795382883,-0.5865080520739774,Ciclesonide,126544-47-6,6918155,Yes,10.1016/j.jct.2016.10.014
CC(C)C(=O)OCC(=O)[C@@]12O[C@H](C3CCCCC3)O[C@@H]1C[C@H]1[C@@H]3CCC4=CC(=O)C=C[C@]4(C)[C@H]3[C@@H](O)C[C@@]12C,308.15,ethanol,CCO,0.0176,0.3019263768276208,-0.5200989445777865,Ciclesonide,126544-47-6,6918155,Yes,10.1016/j.jct.2016.10.014
CC(C)C(=O)OCC(=O)[C@@]12O[C@H](C3CCCCC3)O[C@@H]1C[C@H]1[C@@H]3CCC4=CC(=O)C=C[C@]4(C)[C@H]3[C@@H](O)C[C@@]12C,310.65,ethanol,CCO,0.0204,0.34998110134620625,-0.45595540651445265,Ciclesonide,126544-47-6,6918155,Yes,10.1016/j.jct.2016.10.014
CC(C)C(=O)OCC(=O)[C@@]12O[C@H](C3CCCCC3)O[C@@H]1C[C@H]1[C@@H]3CCC4=CC(=O)C=C[C@]4(C)[C@H]3[C@@H](O)C[C@@]12C,313.15,ethanol,CCO,0.0237,0.40688091661767195,-0.3905326787925589,Ciclesonide,126544-47-6,6918155,Yes,10.1016/j.jct.2016.10.014
Nc1ccccc1N,283.15,ethanol,CCO,0.0139,0.24404516138628307,-0.6125297985547615,O-phenylenediamine,95-54-5,7243,No,10.1016/j.jct.2016.10.018
Nc1ccccc1N,285.65,ethanol,CCO,0.01436,0.2517582723646164,-0.5990162503343032,O-phenylenediamine,95-54-5,7243,No,10.1016/j.jct.2016.10.018
Nc1ccccc1N,288.15,ethanol,CCO,0.01482,0.2590366923450988,-0.5866387140873157,O-phenylenediamine,95-54-5,7243,No,10.1016/j.jct.2016.10.018
Nc1ccccc1N,290.65,ethanol,CCO,0.01535,0.2679069558525067,-0.5720160103591538,O-phenylenediamine,95-54-5,7243,No,10.1016/j.jct.2016.10.018
Nc1ccccc1N,293.15,ethanol,CCO,0.01596,0.2779655582062563,-0.5560090127424355,O-phenylenediamine,95-54-5,7243,No,10.1016/j.jct.2016.10.018
Nc1ccccc1N,295.65,ethanol,CCO,0.01655,0.28760726147088184,-0.5412001531399092,O-phenylenediamine,95-54-5,7243,No,10.1016/j.jct.2016.10.018
Nc1ccccc1N,298.15,ethanol,CCO,0.01716,0.29766869285266145,-0.5262668396438754,O-phenylenediamine,95-54-5,7243,No,10.1016/j.jct.2016.10.018
Nc1ccccc1N,300.65,ethanol,CCO,0.01769,0.30606711179896084,-0.5141833346679272,O-phenylenediamine,95-54-5,7243,No,10.1016/j.jct.2016.10.018
Nc1ccccc1N,303.15,ethanol,CCO,0.01841,0.3179144738302292,-0.4976896993217549,O-phenylenediamine,95-54-5,7243,No,10.1016/j.jct.2016.10.018
Nc1ccccc1N,305.65,ethanol,CCO,0.01904,0.328036963640066,-0.4840772166528478,O-phenylenediamine,95-54-5,7243,No,10.1016/j.jct.2016.10.018
Nc1ccccc1N,308.15,ethanol,CCO,0.01989,0.34200834599755003,-0.46596329576709317,O-phenylenediamine,95-54-5,7243,No,10.1016/j.jct.2016.10.018
Nc1ccccc1N,310.65,ethanol,CCO,0.02055,0.35260848452153426,-0.45270724184795125,O-phenylenediamine,95-54-5,7243,No,10.1016/j.jct.2016.10.018
Nc1ccccc1N,313.15,ethanol,CCO,0.02133,0.36530603268154715,-0.43734315576871896,O-phenylenediamine,95-54-5,7243,No,10.1016/j.jct.2016.10.018
Nc1ccccc1N,315.65,ethanol,CCO,0.02214,0.378361005809026,-0.4220936287041818,O-phenylenediamine,95-54-5,7243,No,10.1016/j.jct.2016.10.018
Nc1ccccc1N,318.15,ethanol,CCO,0.02332,0.39786040510950355,-0.40026927949670565,O-phenylenediamine,95-54-5,7243,No,10.1016/j.jct.2016.10.018
COc1cc(Cl)nc(N)n1,273.15,ethanol,CCO,0.001279,0.022433260835202883,-1.6491075940137634,2-amino-4-chloro-6-methoxypyrimidine,5734-64-5,79811,No,10.1016/j.jct.2016.10.020
COc1cc(Cl)nc(N)n1,278.15,ethanol,CCO,0.00163,0.028444901193444838,-1.5459955704641903,2-amino-4-chloro-6-methoxypyrimidine,5734-64-5,79811,No,10.1016/j.jct.2016.10.020
COc1cc(Cl)nc(N)n1,283.15,ethanol,CCO,0.00206,0.035738732818715056,-1.4468608502521982,2-amino-4-chloro-6-methoxypyrimidine,5734-64-5,79811,No,10.1016/j.jct.2016.10.020
COc1cc(Cl)nc(N)n1,288.15,ethanol,CCO,0.002591,0.04473246175109173,-1.3493772007431497,2-amino-4-chloro-6-methoxypyrimidine,5734-64-5,79811,No,10.1016/j.jct.2016.10.020
COc1cc(Cl)nc(N)n1,293.15,ethanol,CCO,0.00323,0.055536488503746095,-1.2554215835641165,2-amino-4-chloro-6-methoxypyrimidine,5734-64-5,79811,No,10.1016/j.jct.2016.10.020
COc1cc(Cl)nc(N)n1,298.15,ethanol,CCO,0.003956,0.06771368662737326,-1.1693235406799154,2-amino-4-chloro-6-methoxypyrimidine,5734-64-5,79811,No,10.1016/j.jct.2016.10.020
COc1cc(Cl)nc(N)n1,303.15,ethanol,CCO,0.004877,0.08307352309881946,-1.0805373709729296,2-amino-4-chloro-6-methoxypyrimidine,5734-64-5,79811,No,10.1016/j.jct.2016.10.020
COc1cc(Cl)nc(N)n1,308.15,ethanol,CCO,0.005976,0.10131889856912392,-0.9943095400416919,2-amino-4-chloro-6-methoxypyrimidine,5734-64-5,79811,No,10.1016/j.jct.2016.10.020
COc1cc(Cl)nc(N)n1,313.15,ethanol,CCO,0.007331,0.12378300582884053,-0.9073389755208172,2-amino-4-chloro-6-methoxypyrimidine,5734-64-5,79811,No,10.1016/j.jct.2016.10.020
COc1cc(Cl)nc(N)n1,318.15,ethanol,CCO,0.00886,0.14895434882806174,-0.8269468127278289,2-amino-4-chloro-6-methoxypyrimidine,5734-64-5,79811,No,10.1016/j.jct.2016.10.020
COc1cc(Cl)nc(N)n1,323.15,ethanol,CCO,0.0106,0.17748576860498266,-0.7508364643785226,2-amino-4-chloro-6-methoxypyrimidine,5734-64-5,79811,No,10.1016/j.jct.2016.10.020
Cc1cc([N+](=O)[O-])ccc1N,278.15,ethanol,CCO,0.00732,0.1284724944587859,-0.8911898434099362,2-methyl-4-nitroaniline,99-52-5,7441,No,10.1016/j.jct.2016.10.037
Cc1cc([N+](=O)[O-])ccc1N,280.65,ethanol,CCO,0.00807,0.14135695841691107,-0.8496828081317611,2-methyl-4-nitroaniline,99-52-5,7441,No,10.1016/j.jct.2016.10.037
Cc1cc([N+](=O)[O-])ccc1N,283.15,ethanol,CCO,0.00887,0.15494207152794434,-0.8098306419465424,2-methyl-4-nitroaniline,99-52-5,7441,No,10.1016/j.jct.2016.10.037
Cc1cc([N+](=O)[O-])ccc1N,285.65,ethanol,CCO,0.00974,0.16996415909942683,-0.7696426500711652,2-methyl-4-nitroaniline,99-52-5,7441,No,10.1016/j.jct.2016.10.037
Cc1cc([N+](=O)[O-])ccc1N,288.15,ethanol,CCO,0.01068,0.18589304134344645,-0.7307368671549772,2-methyl-4-nitroaniline,99-52-5,7441,No,10.1016/j.jct.2016.10.037
Cc1cc([N+](=O)[O-])ccc1N,290.65,ethanol,CCO,0.01167,0.2029207098445103,-0.6926736271302365,2-methyl-4-nitroaniline,99-52-5,7441,No,10.1016/j.jct.2016.10.037
Cc1cc([N+](=O)[O-])ccc1N,293.15,ethanol,CCO,0.01274,0.2211610988791314,-0.6552912608568434,2-methyl-4-nitroaniline,99-52-5,7441,No,10.1016/j.jct.2016.10.037
Cc1cc([N+](=O)[O-])ccc1N,295.65,ethanol,CCO,0.01391,0.24108195731281487,-0.6178352912098332,2-methyl-4-nitroaniline,99-52-5,7441,No,10.1016/j.jct.2016.10.037
Cc1cc([N+](=O)[O-])ccc1N,298.15,ethanol,CCO,0.01521,0.26332026544766535,-0.5795157157765326,2-methyl-4-nitroaniline,99-52-5,7441,No,10.1016/j.jct.2016.10.037
Cc1cc([N+](=O)[O-])ccc1N,300.65,ethanol,CCO,0.01652,0.285484088691092,-0.5444180919232928,2-methyl-4-nitroaniline,99-52-5,7441,No,10.1016/j.jct.2016.10.037
Cc1cc([N+](=O)[O-])ccc1N,303.15,ethanol,CCO,0.01804,0.31140771906181236,-0.5066706265000698,2-methyl-4-nitroaniline,99-52-5,7441,No,10.1016/j.jct.2016.10.037
Cc1cc([N+](=O)[O-])ccc1N,305.65,ethanol,CCO,0.01965,0.3387572039579232,-0.47011146038054274,2-methyl-4-nitroaniline,99-52-5,7441,No,10.1016/j.jct.2016.10.037
Cc1cc([N+](=O)[O-])ccc1N,308.15,ethanol,CCO,0.02133,0.36730878969214753,-0.43496867887190527,2-methyl-4-nitroaniline,99-52-5,7441,No,10.1016/j.jct.2016.10.037
Cc1cc([N+](=O)[O-])ccc1N,310.65,ethanol,CCO,0.02314,0.3981018817783776,-0.4000057695547264,2-methyl-4-nitroaniline,99-52-5,7441,No,10.1016/j.jct.2016.10.037
Cc1cc([N+](=O)[O-])ccc1N,313.15,ethanol,CCO,0.02505,0.4306531727058391,-0.3658723489039534,2-methyl-4-nitroaniline,99-52-5,7441,No,10.1016/j.jct.2016.10.037
O=Cc1cccc([N+](=O)[O-])c1,273.15,ethanol,CCO,0.03577,0.6498368633556734,-0.18719565602911367,3-nitrobenzaldehyde,99-61-6,7449,No,10.1016/j.jct.2016.10.040
O=Cc1cccc([N+](=O)[O-])c1,275.65,ethanol,CCO,0.04162,0.7586703809386902,-0.11994687078762784,3-nitrobenzaldehyde,99-61-6,7449,No,10.1016/j.jct.2016.10.040
O=Cc1cccc([N+](=O)[O-])c1,278.15,ethanol,CCO,0.04802,0.8788255584944026,-0.05609732117383465,3-nitrobenzaldehyde,99-61-6,7449,No,10.1016/j.jct.2016.10.040
O=Cc1cccc([N+](=O)[O-])c1,280.65,ethanol,CCO,0.0555,1.0209763997024457,0.00901570330389487,3-nitrobenzaldehyde,99-61-6,7449,No,10.1016/j.jct.2016.10.040
O=Cc1cccc([N+](=O)[O-])c1,283.15,ethanol,CCO,0.06373,1.178471734662199,0.07131917054515625,3-nitrobenzaldehyde,99-61-6,7449,No,10.1016/j.jct.2016.10.040
O=Cc1cccc([N+](=O)[O-])c1,285.65,ethanol,CCO,0.07357,1.3722580140354492,0.1374357757562289,3-nitrobenzaldehyde,99-61-6,7449,No,10.1016/j.jct.2016.10.040
O=Cc1cccc([N+](=O)[O-])c1,288.15,ethanol,CCO,0.08442,1.5877339068198626,0.20077771944937323,3-nitrobenzaldehyde,99-61-6,7449,No,10.1016/j.jct.2016.10.040
O=Cc1cccc([N+](=O)[O-])c1,290.65,ethanol,CCO,0.09586,1.8220455776699112,0.26055923645858625,3-nitrobenzaldehyde,99-61-6,7449,No,10.1016/j.jct.2016.10.040
O=Cc1cccc([N+](=O)[O-])c1,293.15,ethanol,CCO,0.1093,2.103098250930261,0.3228595621966066,3-nitrobenzaldehyde,99-61-6,7449,No,10.1016/j.jct.2016.10.040
O=Cc1cccc([N+](=O)[O-])c1,295.65,ethanol,CCO,0.1254,2.4504294138233425,0.3892421969002551,3-nitrobenzaldehyde,99-61-6,7449,No,10.1016/j.jct.2016.10.040
O=Cc1cccc([N+](=O)[O-])c1,298.15,ethanol,CCO,0.1408,2.793875739705962,0.4462070865454904,3-nitrobenzaldehyde,99-61-6,7449,No,10.1016/j.jct.2016.10.040
O=Cc1cccc([N+](=O)[O-])c1,300.65,ethanol,CCO,0.1608,3.256551621902616,0.5127579668736081,3-nitrobenzaldehyde,99-61-6,7449,No,10.1016/j.jct.2016.10.040
O=Cc1cccc([N+](=O)[O-])c1,303.15,ethanol,CCO,0.1834,3.8069449191704563,0.580576593264753,3-nitrobenzaldehyde,99-61-6,7449,No,10.1016/j.jct.2016.10.040
Nc1ccc([N+](=O)[O-])cc1N,283.15,ethanol,CCO,0.0008707,0.015087705881552222,-1.8213767906237077,"4-nitro-1,2-phenylenediamine",99-56-9,5111791,No,10.1016/j.jct.2016.11.014
Nc1ccc([N+](=O)[O-])cc1N,285.65,ethanol,CCO,0.0009465,0.016371161865449405,-1.7859204975063563,"4-nitro-1,2-phenylenediamine",99-56-9,5111791,No,10.1016/j.jct.2016.11.014
Nc1ccc([N+](=O)[O-])cc1N,288.15,ethanol,CCO,0.00102,0.01758215268479621,-1.7549279528178,"4-nitro-1,2-phenylenediamine",99-56-9,5111791,No,10.1016/j.jct.2016.11.014