SMILES_Solute,Temperature_K,Solvent,SMILES_Solvent,Solubility(mole_fraction),Solubility(mol/L),LogS(mol/L),Compound_Name,CAS,PubChem_CID,FDA_Approved,Source
CC(=O)c1c(C)c([N+](=O)[O-])c(C(C)(C)C)c([N+](=O)[O-])c1C,308.15,ethanol,CCO,0.00622,0.10548164009363972,-0.9768231261474695,Musk ketone,81-14-1,6669,No,10.1016/j.molliq.2019.111437
CC(=O)c1c(C)c([N+](=O)[O-])c(C(C)(C)C)c([N+](=O)[O-])c1C,313.15,ethanol,CCO,0.007431,0.1254841342395116,-0.9014111813368264,Musk ketone,81-14-1,6669,No,10.1016/j.molliq.2019.111437
CC(=O)c1c(C)c([N+](=O)[O-])c(C(C)(C)C)c([N+](=O)[O-])c1C,318.15,ethanol,CCO,0.008691,0.1460882106714621,-0.8353848302458373,Musk ketone,81-14-1,6669,No,10.1016/j.molliq.2019.111437
COC(=O)c1cc(O)c(O)c(O)c1,293.15,ethanol,CCO,0.0706,1.3018857862288256,0.11457288547156501,Methyl gallate,99-24-1,7428,No,10.1016/j.molliq.2019.111531
COC(=O)c1cc(O)c(O)c(O)c1,298.15,ethanol,CCO,0.0758,1.3983050996738617,0.14560194154424477,Methyl gallate,99-24-1,7428,No,10.1016/j.molliq.2019.111531
COC(=O)c1cc(O)c(O)c(O)c1,303.15,ethanol,CCO,0.0819,1.5121001340154352,0.17958055188635635,Methyl gallate,99-24-1,7428,No,10.1016/j.molliq.2019.111531
COC(=O)c1cc(O)c(O)c(O)c1,308.15,ethanol,CCO,0.08810000000000001,1.6281913160620904,0.21170543410870546,Methyl gallate,99-24-1,7428,No,10.1016/j.molliq.2019.111531
COC(=O)c1cc(O)c(O)c(O)c1,313.15,ethanol,CCO,0.0955,1.7696894624095214,0.24789706489625626,Methyl gallate,99-24-1,7428,No,10.1016/j.molliq.2019.111531
COC(=O)c1cc(O)c(O)c(O)c1,318.15,ethanol,CCO,0.1027,1.907160506556994,0.28038724479149885,Methyl gallate,99-24-1,7428,No,10.1016/j.molliq.2019.111531
COC(=O)c1cc(O)c(O)c(O)c1,323.15,ethanol,CCO,0.1097,2.0412670749649107,0.3098998305834382,Methyl gallate,99-24-1,7428,No,10.1016/j.molliq.2019.111531
COC(=O)c1cc(O)c(O)c(O)c1,328.15,ethanol,CCO,0.1186,2.215724173725994,0.34551569590994635,Methyl gallate,99-24-1,7428,No,10.1016/j.molliq.2019.111531
COC(=O)c1cc(O)c(O)c(O)c1,333.15,ethanol,CCO,0.1276,2.39512349998615,0.37932791189658355,Methyl gallate,99-24-1,7428,No,10.1016/j.molliq.2019.111531
C/C(=C/C(C)=N/c1c(C(C)C)cccc1C(C)C)Nc1c(C(C)C)cccc1C(C)C,268.15,ethanol,CCO,0.0008,0.014100956420339943,-1.8507514296148904,"N-(4-((2,6-Diisopropylphenyl)imino)pent-2-en-2-yl)-2,6-diisopropylaniline",,6914258,No,10.1016/j.molliq.2019.111541
C/C(=C/C(C)=N/c1c(C(C)C)cccc1C(C)C)Nc1c(C(C)C)cccc1C(C)C,273.15,ethanol,CCO,0.0009,0.015779730940907954,-1.8019004061883972,"N-(4-((2,6-Diisopropylphenyl)imino)pent-2-en-2-yl)-2,6-diisopropylaniline",,6914258,No,10.1016/j.molliq.2019.111541
C/C(=C/C(C)=N/c1c(C(C)C)cccc1C(C)C)Nc1c(C(C)C)cccc1C(C)C,278.15,ethanol,CCO,0.001,0.017439854581268097,-1.7584571406658445,"N-(4-((2,6-Diisopropylphenyl)imino)pent-2-en-2-yl)-2,6-diisopropylaniline",,6914258,No,10.1016/j.molliq.2019.111541
C/C(=C/C(C)=N/c1c(C(C)C)cccc1C(C)C)Nc1c(C(C)C)cccc1C(C)C,283.15,ethanol,CCO,0.0013,0.022536406229963543,-1.6471153375770629,"N-(4-((2,6-Diisopropylphenyl)imino)pent-2-en-2-yl)-2,6-diisopropylaniline",,6914258,No,10.1016/j.molliq.2019.111541
C/C(=C/C(C)=N/c1c(C(C)C)cccc1C(C)C)Nc1c(C(C)C)cccc1C(C)C,288.15,ethanol,CCO,0.0015,0.025868536465076614,-1.5872281411760316,"N-(4-((2,6-Diisopropylphenyl)imino)pent-2-en-2-yl)-2,6-diisopropylaniline",,6914258,No,10.1016/j.molliq.2019.111541
C/C(=C/C(C)=N/c1c(C(C)C)cccc1C(C)C)Nc1c(C(C)C)cccc1C(C)C,293.15,ethanol,CCO,0.0019,0.0326249908036322,-1.486449602073045,"N-(4-((2,6-Diisopropylphenyl)imino)pent-2-en-2-yl)-2,6-diisopropylaniline",,6914258,No,10.1016/j.molliq.2019.111541
C/C(=C/C(C)=N/c1c(C(C)C)cccc1C(C)C)Nc1c(C(C)C)cccc1C(C)C,298.15,ethanol,CCO,0.0022,0.03759048086345213,-1.4249221186860792,"N-(4-((2,6-Diisopropylphenyl)imino)pent-2-en-2-yl)-2,6-diisopropylaniline",,6914258,No,10.1016/j.molliq.2019.111541
C/C(=C/C(C)=N/c1c(C(C)C)cccc1C(C)C)Nc1c(C(C)C)cccc1C(C)C,303.15,ethanol,CCO,0.0025,0.04248285956158929,-1.3717862581690192,"N-(4-((2,6-Diisopropylphenyl)imino)pent-2-en-2-yl)-2,6-diisopropylaniline",,6914258,No,10.1016/j.molliq.2019.111541
C/C(=C/C(C)=N/c1c(C(C)C)cccc1C(C)C)Nc1c(C(C)C)cccc1C(C)C,308.15,ethanol,CCO,0.003,0.05071107742468109,-1.294897162186837,"N-(4-((2,6-Diisopropylphenyl)imino)pent-2-en-2-yl)-2,6-diisopropylaniline",,6914258,No,10.1016/j.molliq.2019.111541
C/C(=C/C(C)=N/c1c(C(C)C)cccc1C(C)C)Nc1c(C(C)C)cccc1C(C)C,313.15,ethanol,CCO,0.0036,0.060557933455706335,-1.2178289535888391,"N-(4-((2,6-Diisopropylphenyl)imino)pent-2-en-2-yl)-2,6-diisopropylaniline",,6914258,No,10.1016/j.molliq.2019.111541
Cc1ccc(S(N)(=O)=O)cc1,273.15,ethanol,CCO,0.01743,0.31074198124505203,-0.5076000695920571,p-Toluenesulfonamide,70-55-3,6269,No,10.1016/j.molliq.2019.111577
Cc1ccc(S(N)(=O)=O)cc1,279.15,ethanol,CCO,0.02029,0.3604290396182676,-0.443180225356973,p-Toluenesulfonamide,70-55-3,6269,No,10.1016/j.molliq.2019.111577
Cc1ccc(S(N)(=O)=O)cc1,283.65,ethanol,CCO,0.0233,0.4131376225581048,-0.38390525400577635,p-Toluenesulfonamide,70-55-3,6269,No,10.1016/j.molliq.2019.111577
Cc1ccc(S(N)(=O)=O)cc1,289.15,ethanol,CCO,0.02682,0.4743965435599602,-0.32385848388979893,p-Toluenesulfonamide,70-55-3,6269,No,10.1016/j.molliq.2019.111577
Cc1ccc(S(N)(=O)=O)cc1,293.65,ethanol,CCO,0.031160000000000004,0.5508869223600369,-0.2589375373276876,p-Toluenesulfonamide,70-55-3,6269,No,10.1016/j.molliq.2019.111577
Cc1ccc(S(N)(=O)=O)cc1,298.85,ethanol,CCO,0.03612,0.6381661219296767,-0.19506625474847072,p-Toluenesulfonamide,70-55-3,6269,No,10.1016/j.molliq.2019.111577
Cc1ccc(S(N)(=O)=O)cc1,303.25,ethanol,CCO,0.04255,0.7531107051240965,-0.12314117905742682,p-Toluenesulfonamide,70-55-3,6269,No,10.1016/j.molliq.2019.111577
Cc1ccc(S(N)(=O)=O)cc1,308.95,ethanol,CCO,0.05002,0.8865942489669814,-0.05227509014700001,p-Toluenesulfonamide,70-55-3,6269,No,10.1016/j.molliq.2019.111577
Cc1ccc(S(N)(=O)=O)cc1,313.15,ethanol,CCO,0.05924,1.0554519604703603,0.02343847091943887,p-Toluenesulfonamide,70-55-3,6269,No,10.1016/j.molliq.2019.111577
Cc1ccc(S(N)(=O)=O)cc1,317.65,ethanol,CCO,0.07049,1.2644214826612807,0.10189186594165885,p-Toluenesulfonamide,70-55-3,6269,No,10.1016/j.molliq.2019.111577
Cc1ccc(S(N)(=O)=O)cc1,322.15,ethanol,CCO,0.08422,1.5255044753909848,0.18341348607528457,p-Toluenesulfonamide,70-55-3,6269,No,10.1016/j.molliq.2019.111577
COc1ccccc1OCCNCC(O)COc1cccc2[nH]c3ccccc3c12,288.15,ethanol,CCO,0.000677,0.011665717482786902,-1.9330885454057791,Carvedilol,72956-09-3,2585,Yes,10.1016/j.molliq.2019.111622
COc1ccccc1OCCNCC(O)COc1cccc2[nH]c3ccccc3c12,293.15,ethanol,CCO,0.0008460000000000001,0.014511382318733798,-1.8382912157632105,Carvedilol,72956-09-3,2585,Yes,10.1016/j.molliq.2019.111622
COc1ccccc1OCCNCC(O)COc1cccc2[nH]c3ccccc3c12,298.15,ethanol,CCO,0.00106,0.018091107807860735,-1.7425348383303407,Carvedilol,72956-09-3,2585,Yes,10.1016/j.molliq.2019.111622
COc1ccccc1OCCNCC(O)COc1cccc2[nH]c3ccccc3c12,303.15,ethanol,CCO,0.00128,0.021724653591892504,-1.6630471398196414,Carvedilol,72956-09-3,2585,Yes,10.1016/j.molliq.2019.111622
COc1ccccc1OCCNCC(O)COc1cccc2[nH]c3ccccc3c12,308.15,ethanol,CCO,0.00158,0.02666984896937265,-1.5739794437009667,Carvedilol,72956-09-3,2585,Yes,10.1016/j.molliq.2019.111622
CC(=O)OC(c1ccccc1)C(Cl)(Cl)Cl,288.15,ethanol,CCO,0.008646000000000001,0.15018105017826586,-0.8233848630855654,Alpha-(trichloromethyl) benzyl acetate,90-17-5,7007,No,10.1016/j.molliq.2019.111633
CC(=O)OC(c1ccccc1)C(Cl)(Cl)Cl,293.15,ethanol,CCO,0.01082,0.18746611810013786,-0.7270772135459016,Alpha-(trichloromethyl) benzyl acetate,90-17-5,7007,No,10.1016/j.molliq.2019.111633
CC(=O)OC(c1ccccc1)C(Cl)(Cl)Cl,298.15,ethanol,CCO,0.0134,0.2315593849374362,-0.6353376126664374,Alpha-(trichloromethyl) benzyl acetate,90-17-5,7007,No,10.1016/j.molliq.2019.111633
CC(=O)OC(c1ccccc1)C(Cl)(Cl)Cl,303.15,ethanol,CCO,0.01713,0.2954254604695634,-0.5295520788786721,Alpha-(trichloromethyl) benzyl acetate,90-17-5,7007,No,10.1016/j.molliq.2019.111633
CC(=O)OC(c1ccccc1)C(Cl)(Cl)Cl,308.15,ethanol,CCO,0.02175,0.37470211642724366,-0.4263138538769054,Alpha-(trichloromethyl) benzyl acetate,90-17-5,7007,No,10.1016/j.molliq.2019.111633
CC(=O)OC(c1ccccc1)C(Cl)(Cl)Cl,313.15,ethanol,CCO,0.02896,0.4998776297597585,-0.3011362981129402,Alpha-(trichloromethyl) benzyl acetate,90-17-5,7007,No,10.1016/j.molliq.2019.111633
CC(=O)OC(c1ccccc1)C(Cl)(Cl)Cl,318.15,ethanol,CCO,0.04061,0.7053298617122667,-0.15160772894098912,Alpha-(trichloromethyl) benzyl acetate,90-17-5,7007,No,10.1016/j.molliq.2019.111633
CC(=O)OC(c1ccccc1)C(Cl)(Cl)Cl,323.15,ethanol,CCO,0.05546,0.9727227812128493,-0.012010912808413805,Alpha-(trichloromethyl) benzyl acetate,90-17-5,7007,No,10.1016/j.molliq.2019.111633
CC(=O)OC(c1ccccc1)C(Cl)(Cl)Cl,328.15,ethanol,CCO,0.07345,1.305350057960737,0.11572699278850293,Alpha-(trichloromethyl) benzyl acetate,90-17-5,7007,No,10.1016/j.molliq.2019.111633
CCc1cccc(CC)c1/N=C(C)/C=C(/C)Nc1c(CC)cccc1CC,268.15,ethanol,CCO,0.00158,0.02787114582943776,-1.5548451763468776,"N-(4-((2,6-diethylphenyl)imino)pent-2-en-2-yl)-2,6-diethylaniline",,,No,10.1016/j.molliq.2019.111784
CCc1cccc(CC)c1/N=C(C)/C=C(/C)Nc1c(CC)cccc1CC,273.15,ethanol,CCO,0.0018599999999999999,0.032642809270235655,-1.4862124725266117,"N-(4-((2,6-diethylphenyl)imino)pent-2-en-2-yl)-2,6-diethylaniline",,,No,10.1016/j.molliq.2019.111784
CCc1cccc(CC)c1/N=C(C)/C=C(/C)Nc1c(CC)cccc1CC,278.15,ethanol,CCO,0.0022,0.03841382280889058,-1.4155124712208187,"N-(4-((2,6-diethylphenyl)imino)pent-2-en-2-yl)-2,6-diethylaniline",,,No,10.1016/j.molliq.2019.111784
CCc1cccc(CC)c1/N=C(C)/C=C(/C)Nc1c(CC)cccc1CC,283.15,ethanol,CCO,0.0025800000000000003,0.04478349600955902,-1.3488820063711935,"N-(4-((2,6-diethylphenyl)imino)pent-2-en-2-yl)-2,6-diethylaniline",,,No,10.1016/j.molliq.2019.111784
CCc1cccc(CC)c1/N=C(C)/C=C(/C)Nc1c(CC)cccc1CC,288.15,ethanol,CCO,0.00315,0.05441384429632933,-1.2642905904384294,"N-(4-((2,6-diethylphenyl)imino)pent-2-en-2-yl)-2,6-diethylaniline",,,No,10.1016/j.molliq.2019.111784
CCc1cccc(CC)c1/N=C(C)/C=C(/C)Nc1c(CC)cccc1CC,293.15,ethanol,CCO,0.00369,0.06347500289482852,-1.1973972706478908,"N-(4-((2,6-diethylphenyl)imino)pent-2-en-2-yl)-2,6-diethylaniline",,,No,10.1016/j.molliq.2019.111784
CCc1cccc(CC)c1/N=C(C)/C=C(/C)Nc1c(CC)cccc1CC,298.15,ethanol,CCO,0.0047599999999999995,0.08154133739985515,-1.08862216974658,"N-(4-((2,6-diethylphenyl)imino)pent-2-en-2-yl)-2,6-diethylaniline",,,No,10.1016/j.molliq.2019.111784
CCc1cccc(CC)c1/N=C(C)/C=C(/C)Nc1c(CC)cccc1CC,303.15,ethanol,CCO,0.0059499999999999996,0.10146012045892165,-0.9937046264005,"N-(4-((2,6-diethylphenyl)imino)pent-2-en-2-yl)-2,6-diethylaniline",,,No,10.1016/j.molliq.2019.111784
CCc1cccc(CC)c1/N=C(C)/C=C(/C)Nc1c(CC)cccc1CC,308.15,ethanol,CCO,0.00738,0.12529971460712191,-0.9020499181893559,"N-(4-((2,6-diethylphenyl)imino)pent-2-en-2-yl)-2,6-diethylaniline",,,No,10.1016/j.molliq.2019.111784
CCc1cccc(CC)c1/N=C(C)/C=C(/C)Nc1c(CC)cccc1CC,313.15,ethanol,CCO,0.00964,0.16314967284353452,-0.7874137927457976,"N-(4-((2,6-diethylphenyl)imino)pent-2-en-2-yl)-2,6-diethylaniline",,,No,10.1016/j.molliq.2019.111784
CCCCCCCCCCCCCCCCCC(=O)O,293.15,ethanol,CCO,0.0028000000000000004,0.048122326355424044,-1.3176533859269057,Stearic acid,57-11-4,5281,No,10.1016/j.molliq.2019.112101
CCCCCCCCCCCCCCCCCC(=O)O,298.15,ethanol,CCO,0.0049,0.08395142144106459,-1.0759719461157538,Stearic acid,57-11-4,5281,No,10.1016/j.molliq.2019.112101
CCCCCCCCCCCCCCCCCC(=O)O,303.15,ethanol,CCO,0.009210000000000001,0.1575667775091924,-0.8025353469061899,Stearic acid,57-11-4,5281,No,10.1016/j.molliq.2019.112101
CCCCCCCCCCCCCCCCCC(=O)O,308.15,ethanol,CCO,0.0175,0.300180330234817,-0.5226177689560139,Stearic acid,57-11-4,5281,No,10.1016/j.molliq.2019.112101
CCCCCCCCCCCCCCCCCC(=O)O,313.15,ethanol,CCO,0.0358,0.6223263129049169,-0.2059818359947714,Stearic acid,57-11-4,5281,No,10.1016/j.molliq.2019.112101
CCCCCCCCCCCCCCCCCC(=O)O,318.15,ethanol,CCO,0.06508,1.159918733935653,0.06442756281343244,Stearic acid,57-11-4,5281,No,10.1016/j.molliq.2019.112101
CCCCCCCCCCCCCCCCCC(=O)O,323.15,ethanol,CCO,0.1305,2.486397163761321,0.3955705017204381,Stearic acid,57-11-4,5281,No,10.1016/j.molliq.2019.112101
O=C1C2C3C=CC(C3)C2C(=O)N1O,278.15,ethanol,CCO,0.030309999999999997,0.5445795979806718,-0.2639386330114519,"N-hydroxy-5-norbornene-2,3-dicarboximide",21715-90-2,89529,No,10.1016/j.molliq.2019.112203
O=C1C2C3C=CC(C3)C2C(=O)N1O,283.15,ethanol,CCO,0.03515,0.6307276762035872,-0.20015811183403906,"N-hydroxy-5-norbornene-2,3-dicarboximide",21715-90-2,89529,No,10.1016/j.molliq.2019.112203
O=C1C2C3C=CC(C3)C2C(=O)N1O,288.15,ethanol,CCO,0.04205,0.7558782124459779,-0.12154817265145987,"N-hydroxy-5-norbornene-2,3-dicarboximide",21715-90-2,89529,No,10.1016/j.molliq.2019.112203
O=C1C2C3C=CC(C3)C2C(=O)N1O,293.15,ethanol,CCO,0.050980000000000004,0.9206516136368643,-0.03590468131110908,"N-hydroxy-5-norbornene-2,3-dicarboximide",21715-90-2,89529,No,10.1016/j.molliq.2019.112203
O=C1C2C3C=CC(C3)C2C(=O)N1O,298.15,ethanol,CCO,0.05921,1.0730033273326216,0.03060106869470832,"N-hydroxy-5-norbornene-2,3-dicarboximide",21715-90-2,89529,No,10.1016/j.molliq.2019.112203
O=C1C2C3C=CC(C3)C2C(=O)N1O,303.15,ethanol,CCO,0.07032000000000001,1.282129850124788,0.10793201140503719,"N-hydroxy-5-norbornene-2,3-dicarboximide",21715-90-2,89529,No,10.1016/j.molliq.2019.112203
O=C1C2C3C=CC(C3)C2C(=O)N1O,308.15,ethanol,CCO,0.08203,1.5059861041585056,0.17782096461692315,"N-hydroxy-5-norbornene-2,3-dicarboximide",21715-90-2,89529,No,10.1016/j.molliq.2019.112203
O=C1C2C3C=CC(C3)C2C(=O)N1O,313.15,ethanol,CCO,0.09689,1.7982106655834664,0.2548405692331417,"N-hydroxy-5-norbornene-2,3-dicarboximide",21715-90-2,89529,No,10.1016/j.molliq.2019.112203
O=C1C2C3C=CC(C3)C2C(=O)N1O,318.15,ethanol,CCO,0.1115,2.0910860471544646,0.3203719041880604,"N-hydroxy-5-norbornene-2,3-dicarboximide",21715-90-2,89529,No,10.1016/j.molliq.2019.112203
O=C1C2C3C=CC(C3)C2C(=O)N1O,323.15,ethanol,CCO,0.13069999999999998,2.4907806566474564,0.3963354843402364,"N-hydroxy-5-norbornene-2,3-dicarboximide",21715-90-2,89529,No,10.1016/j.molliq.2019.112203
COc1cc2ncnc(Nc3ccc(F)c(Cl)c3)c2cc1OCCCN1CCOCC1,298.2,ethanol,CCO,0.000618,0.010538534719731735,-1.9772197693296332,Gefitinib,184475-35-2,123631,Yes,10.1016/j.molliq.2019.112211
COc1cc2ncnc(Nc3ccc(F)c(Cl)c3)c2cc1OCCCN1CCOCC1,303.2,ethanol,CCO,0.0008230000000000001,0.01395908884206034,-1.8551429286884855,Gefitinib,184475-35-2,123631,Yes,10.1016/j.molliq.2019.112211
COc1cc2ncnc(Nc3ccc(F)c(Cl)c3)c2cc1OCCCN1CCOCC1,308.2,ethanol,CCO,0.00113,0.01906478549219598,-1.7197680768356136,Gefitinib,184475-35-2,123631,Yes,10.1016/j.molliq.2019.112211
COc1cc2ncnc(Nc3ccc(F)c(Cl)c3)c2cc1OCCCN1CCOCC1,313.2,ethanol,CCO,0.0015400000000000001,0.025846487384791703,-1.5875984704833064,Gefitinib,184475-35-2,123631,Yes,10.1016/j.molliq.2019.112211
COc1cc2ncnc(Nc3ccc(F)c(Cl)c3)c2cc1OCCCN1CCOCC1,318.2,ethanol,CCO,0.00207,0.03456343250877583,-1.461383134086779,Gefitinib,184475-35-2,123631,Yes,10.1016/j.molliq.2019.112211
Cl.Cl.Fc1ccc(C(c2ccc(F)cc2)N2CCN(C/C=C/c3ccccc3)CC2)cc1,293.15,ethanol,CCO,0.00522,0.08993201212231514,-1.0460856896528965,Flunarizine hydrochloride,30484-77-6,5282407,Yes,10.1016/j.molliq.2019.112214
Cl.Cl.Fc1ccc(C(c2ccc(F)cc2)N2CCN(C/C=C/c3ccccc3)CC2)cc1,298.15,ethanol,CCO,0.00649,0.11137075251017098,-0.953228845887238,Flunarizine hydrochloride,30484-77-6,5282407,Yes,10.1016/j.molliq.2019.112214
Cl.Cl.Fc1ccc(C(c2ccc(F)cc2)N2CCN(C/C=C/c3ccccc3)CC2)cc1,303.15,ethanol,CCO,0.00792,0.1353209769810772,-0.8686348753833247,Flunarizine hydrochloride,30484-77-6,5282407,Yes,10.1016/j.molliq.2019.112214
Cl.Cl.Fc1ccc(C(c2ccc(F)cc2)N2CCN(C/C=C/c3ccccc3)CC2)cc1,308.15,ethanol,CCO,0.00975,0.1659344293111062,-0.7800634939726375,Flunarizine hydrochloride,30484-77-6,5282407,Yes,10.1016/j.molliq.2019.112214
Cl.Cl.Fc1ccc(C(c2ccc(F)cc2)N2CCN(C/C=C/c3ccccc3)CC2)cc1,313.15,ethanol,CCO,0.01193,0.20237413003816668,-0.693845005170927,Flunarizine hydrochloride,30484-77-6,5282407,Yes,10.1016/j.molliq.2019.112214
Cl.Cl.Fc1ccc(C(c2ccc(F)cc2)N2CCN(C/C=C/c3ccccc3)CC2)cc1,318.15,ethanol,CCO,0.01448,0.24482602904355352,-0.611142411407816,Flunarizine hydrochloride,30484-77-6,5282407,Yes,10.1016/j.molliq.2019.112214
Cl.Cl.Fc1ccc(C(c2ccc(F)cc2)N2CCN(C/C=C/c3ccccc3)CC2)cc1,323.15,ethanol,CCO,0.0176,0.29679316176563647,-0.527546109598073,Flunarizine hydrochloride,30484-77-6,5282407,Yes,10.1016/j.molliq.2019.112214
Cl.Cl.Fc1ccc(C(c2ccc(F)cc2)N2CCN(C/C=C/c3ccccc3)CC2)cc1,328.15,ethanol,CCO,0.02112,0.3552781605481682,-0.44943148838720737,Flunarizine hydrochloride,30484-77-6,5282407,Yes,10.1016/j.molliq.2019.112214
Cl.Cl.Fc1ccc(C(c2ccc(F)cc2)N2CCN(C/C=C/c3ccccc3)CC2)cc1,333.15,ethanol,CCO,0.02521,0.4235012288346376,-0.3731453251790169,Flunarizine hydrochloride,30484-77-6,5282407,Yes,10.1016/j.molliq.2019.112214
O=CC(NS(=O)(=O)O)C(O)C(O)C(O)CO.[Na],288.15,ethanol,CCO,8e-05,0.0013776960109010855,-2.860846599084679,D-glucosamine 2-sulfate sodium salt,38899-05-7,16219445,No,10.1016/j.molliq.2019.112218
O=CC(NS(=O)(=O)O)C(O)C(O)C(O)CO.[Na],293.15,ethanol,CCO,0.00011999999999999999,0.0020568575589768852,-2.6867957829247655,D-glucosamine 2-sulfate sodium salt,38899-05-7,16219445,No,10.1016/j.molliq.2019.112218
O=CC(NS(=O)(=O)O)C(O)C(O)C(O)CO.[Na],298.15,ethanol,CCO,0.00020999999999999998,0.003581040281716448,-2.4459907937524696,D-glucosamine 2-sulfate sodium salt,38899-05-7,16219445,No,10.1016/j.molliq.2019.112218
O=CC(NS(=O)(=O)O)C(O)C(O)C(O)CO.[Na],303.15,ethanol,CCO,0.00027,0.004577914497484336,-2.339332322980286,D-glucosamine 2-sulfate sodium salt,38899-05-7,16219445,No,10.1016/j.molliq.2019.112218
O=CC(NS(=O)(=O)O)C(O)C(O)C(O)CO.[Na],308.15,ethanol,CCO,0.00035,0.005900608702159911,-2.2291031845691567,D-glucosamine 2-sulfate sodium salt,38899-05-7,16219445,No,10.1016/j.molliq.2019.112218
O=CC(NS(=O)(=O)O)C(O)C(O)C(O)CO.[Na],313.15,ethanol,CCO,0.00046,0.007713649793299993,-2.112740082385956,D-glucosamine 2-sulfate sodium salt,38899-05-7,16219445,No,10.1016/j.molliq.2019.112218
O=CC(NS(=O)(=O)O)C(O)C(O)C(O)CO.[Na],318.15,ethanol,CCO,0.00055,0.00916972024383104,-2.0376439138843727,D-glucosamine 2-sulfate sodium salt,38899-05-7,16219445,No,10.1016/j.molliq.2019.112218
Cc1c[nH]c(=O)[nH]c1=O,283.15,ethanol,CCO,0.0003892,0.006740905702503798,-2.1712817480976274,Thymine,65-71-4,1135,No,10.1016/j.molliq.2019.112257
Cc1c[nH]c(=O)[nH]c1=O,288.15,ethanol,CCO,0.0004874,0.0083970341718345,-2.075874079443809,Thymine,65-71-4,1135,No,10.1016/j.molliq.2019.112257
Cc1c[nH]c(=O)[nH]c1=O,293.15,ethanol,CCO,0.0006183,0.010603242802624549,-1.9745612936118382,Thymine,65-71-4,1135,No,10.1016/j.molliq.2019.112257
Cc1c[nH]c(=O)[nH]c1=O,298.15,ethanol,CCO,0.0007739,0.013204433610861042,-1.8792802226246523,Thymine,65-71-4,1135,No,10.1016/j.molliq.2019.112257
Cc1c[nH]c(=O)[nH]c1=O,303.15,ethanol,CCO,0.0009417,0.01597748342695347,-1.7964916242620472,Thymine,65-71-4,1135,No,10.1016/j.molliq.2019.112257
Cc1c[nH]c(=O)[nH]c1=O,308.15,ethanol,CCO,0.001143,0.019285000492870435,-1.7147803456985922,Thymine,65-71-4,1135,No,10.1016/j.molliq.2019.112257
Cc1c[nH]c(=O)[nH]c1=O,313.15,ethanol,CCO,0.001381,0.02317907593730332,-1.6349038817170933,Thymine,65-71-4,1135,No,10.1016/j.molliq.2019.112257
Cc1c[nH]c(=O)[nH]c1=O,318.15,ethanol,CCO,0.001656,0.027639780462966883,-1.5584654107949703,Thymine,65-71-4,1135,No,10.1016/j.molliq.2019.112257
Cc1c[nH]c(=O)[nH]c1=O,323.15,ethanol,CCO,0.00199,0.03303298041602431,-1.4810522401191084,Thymine,65-71-4,1135,No,10.1016/j.molliq.2019.112257
Cn1c(=O)c2c(ncn2C)n(C)c1=O,293.2,ethanol,CCO,0.0008560000000000001,0.014681793874339233,-1.8332208775173564,Caffeine,58-08-2,2519,Yes,10.1016/j.molliq.2019.112354
Cn1c(=O)c2c(ncn2C)n(C)c1=O,298.2,ethanol,CCO,0.00115,0.019620986774055833,-1.7072791549708066,Caffeine,58-08-2,2519,Yes,10.1016/j.molliq.2019.112354
Cn1c(=O)c2c(ncn2C)n(C)c1=O,303.2,ethanol,CCO,0.00136,0.023079671094174005,-1.636770384554569,Caffeine,58-08-2,2519,Yes,10.1016/j.molliq.2019.112354
Cn1c(=O)c2c(ncn2C)n(C)c1=O,308.2,ethanol,CCO,0.00163,0.027514304000371376,-1.560441468592282,Caffeine,58-08-2,2519,Yes,10.1016/j.molliq.2019.112354
Cn1c(=O)c2c(ncn2C)n(C)c1=O,313.2,ethanol,CCO,0.00183,0.03072260635887115,-1.5125419436125114,Caffeine,58-08-2,2519,Yes,10.1016/j.molliq.2019.112354