SMILES_Solute,Temperature_K,Solvent,SMILES_Solvent,Solubility(mole_fraction),Solubility(mol/L),LogS(mol/L),Compound_Name,CAS,PubChem_CID,FDA_Approved,Source
Cc1cc(=O)n(-c2ccccc2)n1C,323.15,ethanol,CCO,0.34,8.534234221789847,0.9311645578852561,Antipyrine,60-80-0,2206,Yes,10.1016/j.molliq.2018.07.061
Cc1cc(=O)n(-c2ccccc2)n1C,328.15,ethanol,CCO,0.38,10.092434980068466,1.0039959601741588,Antipyrine,60-80-0,2206,Yes,10.1016/j.molliq.2018.07.061
COc1ccc2cc([C@H](C)C(=O)O)ccc2c1,293.2,ethanol,CCO,0.0124,0.21516619825190617,-0.6672259535711373,(S)-Naproxen,22204-53-1,156391,Yes,10.1016/j.molliq.2018.07.082
COc1ccc2cc([C@H](C)C(=O)O)ccc2c1,298.2,ethanol,CCO,0.0149,0.25776813417755734,-0.588770772033915,(S)-Naproxen,22204-53-1,156391,Yes,10.1016/j.molliq.2018.07.082
COc1ccc2cc([C@H](C)C(=O)O)ccc2c1,303.2,ethanol,CCO,0.019799999999999998,0.34233409619391997,-0.4655498433353129,(S)-Naproxen,22204-53-1,156391,Yes,10.1016/j.molliq.2018.07.082
COc1ccc2cc([C@H](C)C(=O)O)ccc2c1,308.2,ethanol,CCO,0.0232,0.4002623892015859,-0.3976552166138803,(S)-Naproxen,22204-53-1,156391,Yes,10.1016/j.molliq.2018.07.082
COc1ccc2cc([C@H](C)C(=O)O)ccc2c1,313.2,ethanol,CCO,0.028399999999999998,0.4898265411423539,-0.3099576864236832,(S)-Naproxen,22204-53-1,156391,Yes,10.1016/j.molliq.2018.07.082
O=C(O)c1cccc2ccccc12,293.15,ethanol,CCO,0.028210000000000002,0.4975096545595353,-0.3031984870162504,1-naphthoic acid,86-55-5,6847,No,10.1016/j.molliq.2018.09.114
O=C(O)c1cccc2ccccc12,298.15,ethanol,CCO,0.03109,0.5470612883336703,-0.2619640160905637,1-naphthoic acid,86-55-5,6847,No,10.1016/j.molliq.2018.09.114
O=C(O)c1cccc2ccccc12,303.15,ethanol,CCO,0.03562,0.6260836429373695,-0.20336764244525643,1-naphthoic acid,86-55-5,6847,No,10.1016/j.molliq.2018.09.114
O=C(O)c1cccc2ccccc12,308.15,ethanol,CCO,0.04024,0.706597452940478,-0.15082793239210052,1-naphthoic acid,86-55-5,6847,No,10.1016/j.molliq.2018.09.114
O=C(O)c1cccc2ccccc12,313.15,ethanol,CCO,0.04568,0.8022954591331294,-0.09566566582942045,1-naphthoic acid,86-55-5,6847,No,10.1016/j.molliq.2018.09.114
O=C(O)c1cccc2ccccc12,318.15,ethanol,CCO,0.05135,0.9019633808747118,-0.04481109417299834,1-naphthoic acid,86-55-5,6847,No,10.1016/j.molliq.2018.09.114
O=C(O)c1cccc2ccccc12,323.15,ethanol,CCO,0.05743,1.0093801961217357,0.004054779692869903,1-naphthoic acid,86-55-5,6847,No,10.1016/j.molliq.2018.09.114
O=C(O)c1cccc2ccccc12,328.15,ethanol,CCO,0.06544,1.1530287992529045,0.06184015482325031,1-naphthoic acid,86-55-5,6847,No,10.1016/j.molliq.2018.09.114
O=C(O)c1cccc2ccccc12,333.15,ethanol,CCO,0.07385,1.3057560988862762,0.11586206300335998,1-naphthoic acid,86-55-5,6847,No,10.1016/j.molliq.2018.09.114
Br.Cc1ccc(Sc2ccccc2N2CCNCC2)c(C)c1,283.15,ethanol,CCO,0.0012350000000000002,0.021408192574600998,-1.6694199972553947,Vortioxetine hydrobromide,960203-27-4,56843850,Yes,10.1016/j.molliq.2018.09.130
Br.Cc1ccc(Sc2ccccc2N2CCNCC2)c(C)c1,288.15,ethanol,CCO,0.001379,0.023778926284454684,-1.6238077594424818,Vortioxetine hydrobromide,960203-27-4,56843850,Yes,10.1016/j.molliq.2018.09.130
Br.Cc1ccc(Sc2ccccc2N2CCNCC2)c(C)c1,293.15,ethanol,CCO,0.001504,0.025815013672638578,-1.5881276405973932,Vortioxetine hydrobromide,960203-27-4,56843850,Yes,10.1016/j.molliq.2018.09.130
Br.Cc1ccc(Sc2ccccc2N2CCNCC2)c(C)c1,298.15,ethanol,CCO,0.001623,0.027715495827187422,-1.5572773475212653,Vortioxetine hydrobromide,960203-27-4,56843850,Yes,10.1016/j.molliq.2018.09.130
Br.Cc1ccc(Sc2ccccc2N2CCNCC2)c(C)c1,303.15,ethanol,CCO,0.0019950000000000002,0.03388416753956431,-1.4700031795654822,Vortioxetine hydrobromide,960203-27-4,56843850,Yes,10.1016/j.molliq.2018.09.130
Br.Cc1ccc(Sc2ccccc2N2CCNCC2)c(C)c1,308.15,ethanol,CCO,0.002686,0.04538902294924344,-1.3430491658431642,Vortioxetine hydrobromide,960203-27-4,56843850,Yes,10.1016/j.molliq.2018.09.130
Br.Cc1ccc(Sc2ccccc2N2CCNCC2)c(C)c1,313.15,ethanol,CCO,0.002972,0.04996244861637952,-1.3013562853795106,Vortioxetine hydrobromide,960203-27-4,56843850,Yes,10.1016/j.molliq.2018.09.130
Br.Cc1ccc(Sc2ccccc2N2CCNCC2)c(C)c1,318.15,ethanol,CCO,0.003412,0.057048973962691485,-1.2437521620494199,Vortioxetine hydrobromide,960203-27-4,56843850,Yes,10.1016/j.molliq.2018.09.130
O=C(O)CCCCCCCC(=O)O,276.75,ethanol,CCO,0.0212,0.3779302839985286,-0.4225883061605528,Azelaic acid,123-99-9,2266,Yes,10.1016/j.molliq.2018.10.068
O=C(O)CCCCCCCC(=O)O,280.05,ethanol,CCO,0.0253,0.4512930148590902,-0.3455413884644088,Azelaic acid,123-99-9,2266,Yes,10.1016/j.molliq.2018.10.068
O=C(O)CCCCCCCC(=O)O,283.25,ethanol,CCO,0.0292,0.5211266973706832,-0.28305667731535417,Azelaic acid,123-99-9,2266,Yes,10.1016/j.molliq.2018.10.068
O=C(O)CCCCCCCC(=O)O,288.15,ethanol,CCO,0.0362,0.6467706706133498,-0.18924968245701543,Azelaic acid,123-99-9,2266,Yes,10.1016/j.molliq.2018.10.068
O=C(O)CCCCCCCC(=O)O,293.05,ethanol,CCO,0.0449,0.8057550519289477,-0.09379696286435656,Azelaic acid,123-99-9,2266,Yes,10.1016/j.molliq.2018.10.068
O=C(O)CCCCCCCC(=O)O,297.55,ethanol,CCO,0.0546,0.9849504933990206,-0.006585597912492681,Azelaic acid,123-99-9,2266,Yes,10.1016/j.molliq.2018.10.068
O=C(O)CCCCCCCC(=O)O,304.05,ethanol,CCO,0.069,1.2548323646839783,0.09858571150992392,Azelaic acid,123-99-9,2266,Yes,10.1016/j.molliq.2018.10.068
O=C(O)CCCCCCCC(=O)O,307.35,ethanol,CCO,0.083,1.5268152843302876,0.18378649884522902,Azelaic acid,123-99-9,2266,Yes,10.1016/j.molliq.2018.10.068
O=C(O)CCCCCCCC(=O)O,312.05,ethanol,CCO,0.0969,1.8003807617463727,0.25536436356880116,Azelaic acid,123-99-9,2266,Yes,10.1016/j.molliq.2018.10.068
O=C(O)CCCCCCCC(=O)O,317.05,ethanol,CCO,0.1171,2.2128915985981226,0.3449601399626221,Azelaic acid,123-99-9,2266,Yes,10.1016/j.molliq.2018.10.068
O=C(O)CCCCCCCC(=O)O,322.05,ethanol,CCO,0.1427,2.7614056634068835,0.44113021121653423,Azelaic acid,123-99-9,2266,Yes,10.1016/j.molliq.2018.10.068
O=C(O)CCCCCCCC(=O)O,326.85,ethanol,CCO,0.166,3.2839087128339184,0.5163910759554627,Azelaic acid,123-99-9,2266,Yes,10.1016/j.molliq.2018.10.068
O=C(O)CCCCCCCC(=O)O,332.05,ethanol,CCO,0.2024,4.161695301181849,0.6192702801381054,Azelaic acid,123-99-9,2266,Yes,10.1016/j.molliq.2018.10.068
O=C(O)CCCCCCCC(=O)O,336.55,ethanol,CCO,0.2339,4.981079091870775,0.6973234377151848,Azelaic acid,123-99-9,2266,Yes,10.1016/j.molliq.2018.10.068
CC1=CC(=O)C(C(C)C)=CC1=O,298.2,ethanol,CCO,0.0179,0.3106136940299672,-0.5077794014389162,Thymoquinone,490-91-5,10281,No,10.1016/j.molliq.2018.10.104
CC1=CC(=O)C(C(C)C)=CC1=O,303.2,ethanol,CCO,0.0206,0.356456702538927,-0.44799321473327897,Thymoquinone,490-91-5,10281,No,10.1016/j.molliq.2018.10.104
CC1=CC(=O)C(C(C)C)=CC1=O,308.2,ethanol,CCO,0.023799999999999998,0.41086637764026057,-0.3862993968319443,Thymoquinone,490-91-5,10281,No,10.1016/j.molliq.2018.10.104
CC1=CC(=O)C(C(C)C)=CC1=O,313.2,ethanol,CCO,0.0278,0.47918217984601247,-0.31949934115807493,Thymoquinone,490-91-5,10281,No,10.1016/j.molliq.2018.10.104
CC1=CC(=O)C(C(C)C)=CC1=O,318.2,ethanol,CCO,0.0326,0.5615108030157706,-0.2506418838459702,Thymoquinone,490-91-5,10281,No,10.1016/j.molliq.2018.10.104
Cc1nc2cc(N)ccc2s1,288.5,ethanol,CCO,0.001247,0.021507762003308388,-1.667404777905433,"2-methyl-1,3-benzothiazol-5-amine",13382-43-9,36229,No,10.1016/j.molliq.2018.10.109
Cc1nc2cc(N)ccc2s1,293.5,ethanol,CCO,0.001294,0.02219656784112182,-1.6537141734275538,"2-methyl-1,3-benzothiazol-5-amine",13382-43-9,36229,No,10.1016/j.molliq.2018.10.109
Cc1nc2cc(N)ccc2s1,298.5,ethanol,CCO,0.001562,0.026652513404642666,-1.574261829553092,"2-methyl-1,3-benzothiazol-5-amine",13382-43-9,36229,No,10.1016/j.molliq.2018.10.109
Cc1nc2cc(N)ccc2s1,303.5,ethanol,CCO,0.0016419999999999998,0.027863820721592204,-1.5549593328318223,"2-methyl-1,3-benzothiazol-5-amine",13382-43-9,36229,No,10.1016/j.molliq.2018.10.109
Cc1nc2cc(N)ccc2s1,308.5,ethanol,CCO,0.001742,0.029398226528562464,-1.5316788679582645,"2-methyl-1,3-benzothiazol-5-amine",13382-43-9,36229,No,10.1016/j.molliq.2018.10.109
Cc1nc2cc(N)ccc2s1,313.5,ethanol,CCO,0.0019370000000000001,0.0325113980677464,-1.4879643544025982,"2-methyl-1,3-benzothiazol-5-amine",13382-43-9,36229,No,10.1016/j.molliq.2018.10.109
Cc1nc2cc(N)ccc2s1,318.5,ethanol,CCO,0.002205,0.0368099757177285,-1.4340344690423308,"2-methyl-1,3-benzothiazol-5-amine",13382-43-9,36229,No,10.1016/j.molliq.2018.10.109
Cc1nc2cc(N)ccc2s1,323.5,ethanol,CCO,0.002534,0.042075275718931576,-1.3759730294146888,"2-methyl-1,3-benzothiazol-5-amine",13382-43-9,36229,No,10.1016/j.molliq.2018.10.109
Cc1nc2cc(N)ccc2s1,328.5,ethanol,CCO,0.0028450000000000003,0.04698335441346136,-1.3280559796561089,"2-methyl-1,3-benzothiazol-5-amine",13382-43-9,36229,No,10.1016/j.molliq.2018.10.109
NC(=O)N/N=C/c1ccc([N+](=O)[O-])o1,278.15,ethanol,CCO,6.966e-05,0.0012137299582898986,-2.9158779283102763,5-nitrofurazone,,5353356,Yes,10.1016/j.molliq.2018.11.123
NC(=O)N/N=C/c1ccc([N+](=O)[O-])o1,283.15,ethanol,CCO,8.331e-05,0.001442479590370319,-2.840890322957156,5-nitrofurazone,,5353356,Yes,10.1016/j.molliq.2018.11.123
NC(=O)N/N=C/c1ccc([N+](=O)[O-])o1,288.15,ethanol,CCO,0.00010049999999999999,0.001730766097238165,-2.7617616204796644,5-nitrofurazone,,5353356,Yes,10.1016/j.molliq.2018.11.123
NC(=O)N/N=C/c1ccc([N+](=O)[O-])o1,293.15,ethanol,CCO,0.00012119999999999999,0.002077428627780193,-2.682473887925886,5-nitrofurazone,,5353356,Yes,10.1016/j.molliq.2018.11.123
NC(=O)N/N=C/c1ccc([N+](=O)[O-])o1,298.15,ethanol,CCO,0.00014330000000000001,0.002443470664226038,-2.6119928706490008,5-nitrofurazone,,5353356,Yes,10.1016/j.molliq.2018.11.123
NC(=O)N/N=C/c1ccc([N+](=O)[O-])o1,303.15,ethanol,CCO,0.00017549999999999998,0.002975363175607828,-2.526460016309882,5-nitrofurazone,,5353356,Yes,10.1016/j.molliq.2018.11.123
NC(=O)N/N=C/c1ccc([N+](=O)[O-])o1,308.15,ethanol,CCO,0.0002133,0.0035955078539053795,-2.444239758251496,5-nitrofurazone,,5353356,Yes,10.1016/j.molliq.2018.11.123
NC(=O)N/N=C/c1ccc([N+](=O)[O-])o1,313.15,ethanol,CCO,0.0002533,0.004246659838929096,-2.3719525249741302,5-nitrofurazone,,5353356,Yes,10.1016/j.molliq.2018.11.123
COc1ccc(-c2nn(-c3ccccc3)cc2/C=C/C(=O)c2nc3ccccc3[nH]2)cc1,298.15,ethanol,CCO,0.0003519,0.006001652171114441,-2.2217291779453125,(E)1(1Hbenzo[d]imidazole2yl)3(3(4methxyphenyl)1phenyl1Hpyrazol4yl) prop2en1-one,,,No,10.1016/j.molliq.2018.12.081
COc1ccc(-c2nn(-c3ccccc3)cc2/C=C/C(=O)c2nc3ccccc3[nH]2)cc1,303.15,ethanol,CCO,0.000372,0.006307992452199795,-2.2001088349959472,(E)1(1Hbenzo[d]imidazole2yl)3(3(4methxyphenyl)1phenyl1Hpyrazol4yl) prop2en1-one,,,No,10.1016/j.molliq.2018.12.081
COc1ccc(-c2nn(-c3ccccc3)cc2/C=C/C(=O)c2nc3ccccc3[nH]2)cc1,308.15,ethanol,CCO,0.0003855,0.006499329820370058,-2.187131423406493,(E)1(1Hbenzo[d]imidazole2yl)3(3(4methxyphenyl)1phenyl1Hpyrazol4yl) prop2en1-one,,,No,10.1016/j.molliq.2018.12.081
COc1ccc(-c2nn(-c3ccccc3)cc2/C=C/C(=O)c2nc3ccccc3[nH]2)cc1,313.15,ethanol,CCO,0.0003986,0.006683634669905242,-2.1749872968367523,(E)1(1Hbenzo[d]imidazole2yl)3(3(4methxyphenyl)1phenyl1Hpyrazol4yl) prop2en1-one,,,No,10.1016/j.molliq.2018.12.081
COc1ccc(-c2nn(-c3ccccc3)cc2/C=C/C(=O)c2nc3ccccc3[nH]2)cc1,318.15,ethanol,CCO,0.0004195,0.006993082613763498,-2.155331341130605,(E)1(1Hbenzo[d]imidazole2yl)3(3(4methxyphenyl)1phenyl1Hpyrazol4yl) prop2en1-one,,,No,10.1016/j.molliq.2018.12.081
COc1ccc(-c2nn(-c3ccccc3)cc2/C=C/C(=O)c2nc3ccccc3[nH]2)cc1,323.15,ethanol,CCO,0.00043,0.007126639961489199,-2.147115181246287,(E)1(1Hbenzo[d]imidazole2yl)3(3(4methxyphenyl)1phenyl1Hpyrazol4yl) prop2en1-one,,,No,10.1016/j.molliq.2018.12.081
COc1ccc(-c2nn(-c3ccccc3)cc2/C=C/C(=O)c2nc3ccccc3[nH]2)cc1,328.15,ethanol,CCO,0.0004518,0.007442974622452472,-2.128253461774976,(E)1(1Hbenzo[d]imidazole2yl)3(3(4methxyphenyl)1phenyl1Hpyrazol4yl) prop2en1-one,,,No,10.1016/j.molliq.2018.12.081
COc1ccc(-c2nn(-c3ccccc3)cc2/C=C/C(=O)c2nc3ccccc3[nH]2)cc1OC,298.15,ethanol,CCO,3.91e-05,0.0006666416423232621,-3.176107561263028,"(E)1(1Hbenzo[d]imidazole2yl)3(3(3,4dimethoxyphenyl)1phenyl1Hpyrazol4yl)prop2en1-one",,,No,10.1016/j.molliq.2018.12.081
COc1ccc(-c2nn(-c3ccccc3)cc2/C=C/C(=O)c2nc3ccccc3[nH]2)cc1OC,303.15,ethanol,CCO,5e-05,0.0008475754270250576,-3.0718216428792706,"(E)1(1Hbenzo[d]imidazole2yl)3(3(3,4dimethoxyphenyl)1phenyl1Hpyrazol4yl)prop2en1-one",,,No,10.1016/j.molliq.2018.12.081
COc1ccc(-c2nn(-c3ccccc3)cc2/C=C/C(=O)c2nc3ccccc3[nH]2)cc1OC,308.15,ethanol,CCO,5.88e-05,0.000991013577769551,-3.0039203952523663,"(E)1(1Hbenzo[d]imidazole2yl)3(3(3,4dimethoxyphenyl)1phenyl1Hpyrazol4yl)prop2en1-one",,,No,10.1016/j.molliq.2018.12.081
COc1ccc(-c2nn(-c3ccccc3)cc2/C=C/C(=O)c2nc3ccccc3[nH]2)cc1OC,313.15,ethanol,CCO,7.159999999999999e-05,0.0012001799946934617,-2.9207536165856265,"(E)1(1Hbenzo[d]imidazole2yl)3(3(3,4dimethoxyphenyl)1phenyl1Hpyrazol4yl)prop2en1-one",,,No,10.1016/j.molliq.2018.12.081
COc1ccc(-c2nn(-c3ccccc3)cc2/C=C/C(=O)c2nc3ccccc3[nH]2)cc1OC,318.15,ethanol,CCO,8.46e-05,0.0014098132075521961,-2.850838425148361,"(E)1(1Hbenzo[d]imidazole2yl)3(3(3,4dimethoxyphenyl)1phenyl1Hpyrazol4yl)prop2en1-one",,,No,10.1016/j.molliq.2018.12.081
COc1ccc(-c2nn(-c3ccccc3)cc2/C=C/C(=O)c2nc3ccccc3[nH]2)cc1OC,323.15,ethanol,CCO,0.0001,0.0016568111476975044,-2.780726991995323,"(E)1(1Hbenzo[d]imidazole2yl)3(3(3,4dimethoxyphenyl)1phenyl1Hpyrazol4yl)prop2en1-one",,,No,10.1016/j.molliq.2018.12.081
COc1ccc(-c2nn(-c3ccccc3)cc2/C=C/C(=O)c2nc3ccccc3[nH]2)cc1OC,328.15,ethanol,CCO,0.0001111,0.0018296430267536305,-2.7376336352060977,"(E)1(1Hbenzo[d]imidazole2yl)3(3(3,4dimethoxyphenyl)1phenyl1Hpyrazol4yl)prop2en1-one",,,No,10.1016/j.molliq.2018.12.081
COc1cccc(-c2nn(-c3ccccc3)cc2/C=C/C(=O)c2nc3ccccc3[nH]2)c1,298.15,ethanol,CCO,7.240000000000001e-05,0.0012344363744307835,-2.908531289649197,(E)1(1Hbenzo[d]imidazole2yl)3(3methxyphenyl1Hpyrazol4yl)prop2en-1-one,,,No,10.1016/j.molliq.2018.12.081
COc1cccc(-c2nn(-c3ccccc3)cc2/C=C/C(=O)c2nc3ccccc3[nH]2)c1,303.15,ethanol,CCO,8.5e-05,0.0014409286609674834,-2.8413575201680388,(E)1(1Hbenzo[d]imidazole2yl)3(3methxyphenyl1Hpyrazol4yl)prop2en-1-one,,,No,10.1016/j.molliq.2018.12.081
COc1cccc(-c2nn(-c3ccccc3)cc2/C=C/C(=O)c2nc3ccccc3[nH]2)c1,308.15,ethanol,CCO,0.0001056,0.0017798627890832552,-2.7496134764781037,(E)1(1Hbenzo[d]imidazole2yl)3(3methxyphenyl1Hpyrazol4yl)prop2en-1-one,,,No,10.1016/j.molliq.2018.12.081
COc1cccc(-c2nn(-c3ccccc3)cc2/C=C/C(=O)c2nc3ccccc3[nH]2)c1,313.15,ethanol,CCO,0.00012130000000000001,0.002033366894569795,-2.691784251509134,(E)1(1Hbenzo[d]imidazole2yl)3(3methxyphenyl1Hpyrazol4yl)prop2en-1-one,,,No,10.1016/j.molliq.2018.12.081
COc1cccc(-c2nn(-c3ccccc3)cc2/C=C/C(=O)c2nc3ccccc3[nH]2)c1,318.15,ethanol,CCO,0.0001361,0.0022681496511248863,-2.6443282943498483,(E)1(1Hbenzo[d]imidazole2yl)3(3methxyphenyl1Hpyrazol4yl)prop2en-1-one,,,No,10.1016/j.molliq.2018.12.081
COc1cccc(-c2nn(-c3ccccc3)cc2/C=C/C(=O)c2nc3ccccc3[nH]2)c1,323.15,ethanol,CCO,0.0001482,0.0024555124884263974,-2.6098578527598746,(E)1(1Hbenzo[d]imidazole2yl)3(3methxyphenyl1Hpyrazol4yl)prop2en-1-one,,,No,10.1016/j.molliq.2018.12.081
COc1cccc(-c2nn(-c3ccccc3)cc2/C=C/C(=O)c2nc3ccccc3[nH]2)c1,328.15,ethanol,CCO,0.0001651,0.0027190853142216105,-2.5655771657429884,(E)1(1Hbenzo[d]imidazole2yl)3(3methxyphenyl1Hpyrazol4yl)prop2en-1-one,,,No,10.1016/j.molliq.2018.12.081
O=C(/C=C/c1cn(-c2ccccc2)nc1-c1ccc(Cl)cc1)c1nc2ccccc2[nH]1,298.15,ethanol,CCO,0.0001017,0.0017340588127015668,-2.760936176987486,(E)1(1Hbenzo[d]imidazole2yl)3(3(4chlorophenyl)phenyl1Hpyrazol4yl) prop2en1-one,,,No,10.1016/j.molliq.2018.12.081
O=C(/C=C/c1cn(-c2ccccc2)nc1-c1ccc(Cl)cc1)c1nc2ccccc2[nH]1,303.15,ethanol,CCO,0.00011300000000000001,0.0019156411565040615,-2.717685840949434,(E)1(1Hbenzo[d]imidazole2yl)3(3(4chlorophenyl)phenyl1Hpyrazol4yl) prop2en1-one,,,No,10.1016/j.molliq.2018.12.081
O=C(/C=C/c1cn(-c2ccccc2)nc1-c1ccc(Cl)cc1)c1nc2ccccc2[nH]1,308.15,ethanol,CCO,0.0001199,0.0020209147772383253,-2.6944520004656547,(E)1(1Hbenzo[d]imidazole2yl)3(3(4chlorophenyl)phenyl1Hpyrazol4yl) prop2en1-one,,,No,10.1016/j.molliq.2018.12.081
O=C(/C=C/c1cn(-c2ccccc2)nc1-c1ccc(Cl)cc1)c1nc2ccccc2[nH]1,313.15,ethanol,CCO,0.0001325,0.0022211387588363008,-2.6534243093873506,(E)1(1Hbenzo[d]imidazole2yl)3(3(4chlorophenyl)phenyl1Hpyrazol4yl) prop2en1-one,,,No,10.1016/j.molliq.2018.12.081
O=C(/C=C/c1cn(-c2ccccc2)nc1-c1ccc(Cl)cc1)c1nc2ccccc2[nH]1,318.15,ethanol,CCO,0.0001484,0.0024731634749473636,-2.606747176028065,(E)1(1Hbenzo[d]imidazole2yl)3(3(4chlorophenyl)phenyl1Hpyrazol4yl) prop2en1-one,,,No,10.1016/j.molliq.2018.12.081
O=C(/C=C/c1cn(-c2ccccc2)nc1-c1ccc(Cl)cc1)c1nc2ccccc2[nH]1,323.15,ethanol,CCO,0.000155,0.0025681985439775547,-2.5903714045826423,(E)1(1Hbenzo[d]imidazole2yl)3(3(4chlorophenyl)phenyl1Hpyrazol4yl) prop2en1-one,,,No,10.1016/j.molliq.2018.12.081
O=C(/C=C/c1cn(-c2ccccc2)nc1-c1ccc(Cl)cc1)c1nc2ccccc2[nH]1,328.15,ethanol,CCO,0.0001725,0.002840979335036142,-2.5465319252747456,(E)1(1Hbenzo[d]imidazole2yl)3(3(4chlorophenyl)phenyl1Hpyrazol4yl) prop2en1-one,,,No,10.1016/j.molliq.2018.12.081
O=C(/C=C/c1cn(-c2ccccc2)nc1-c1ccc(F)cc1)c1nc2ccccc2[nH]1,298.15,ethanol,CCO,0.0008143,0.013894308100659745,-1.8571630750504906,(E)1(1Hbenzo[d]imidazole2yl)3(3(4fluorophenyl)1Hpyrazol4yl)pop2en1-one,,,No,10.1016/j.molliq.2018.12.081
O=C(/C=C/c1cn(-c2ccccc2)nc1-c1ccc(F)cc1)c1nc2ccccc2[nH]1,303.15,ethanol,CCO,0.000828,0.014046778011274713,-1.852423280911472,(E)1(1Hbenzo[d]imidazole2yl)3(3(4fluorophenyl)1Hpyrazol4yl)pop2en1-one,,,No,10.1016/j.molliq.2018.12.081
O=C(/C=C/c1cn(-c2ccccc2)nc1-c1ccc(F)cc1)c1nc2ccccc2[nH]1,308.15,ethanol,CCO,0.0008393000000000001,0.01415658891196956,-1.8490413790736002,(E)1(1Hbenzo[d]imidazole2yl)3(3(4fluorophenyl)1Hpyrazol4yl)pop2en1-one,,,No,10.1016/j.molliq.2018.12.081
O=C(/C=C/c1cn(-c2ccccc2)nc1-c1ccc(F)cc1)c1nc2ccccc2[nH]1,313.15,ethanol,CCO,0.000855,0.014342995423712902,-1.843360140150856,(E)1(1Hbenzo[d]imidazole2yl)3(3(4fluorophenyl)1Hpyrazol4yl)pop2en1-one,,,No,10.1016/j.molliq.2018.12.081
O=C(/C=C/c1cn(-c2ccccc2)nc1-c1ccc(F)cc1)c1nc2ccccc2[nH]1,318.15,ethanol,CCO,0.0008689,0.014491114522879591,-1.8388982113181644,(E)1(1Hbenzo[d]imidazole2yl)3(3(4fluorophenyl)1Hpyrazol4yl)pop2en1-one,,,No,10.1016/j.molliq.2018.12.081
O=C(/C=C/c1cn(-c2ccccc2)nc1-c1ccc(F)cc1)c1nc2ccccc2[nH]1,323.15,ethanol,CCO,0.000879,0.014574724834391668,-1.836399635816522,(E)1(1Hbenzo[d]imidazole2yl)3(3(4fluorophenyl)1Hpyrazol4yl)pop2en1-one,,,No,10.1016/j.molliq.2018.12.081
O=C(/C=C/c1cn(-c2ccccc2)nc1-c1ccc(F)cc1)c1nc2ccccc2[nH]1,328.15,ethanol,CCO,0.000893,0.014717820779916223,-1.832156489816502,(E)1(1Hbenzo[d]imidazole2yl)3(3(4fluorophenyl)1Hpyrazol4yl)pop2en1-one,,,No,10.1016/j.molliq.2018.12.081
O=C(/C=C/c1cn(-c2ccccc2)nc1-c1cccc([N+](=O)[O-])c1)c1nc2ccccc2[nH]1,298.15,ethanol,CCO,5.53e-05,0.0009428613828922264,-3.0255521514514947,(E)1(1Hbenzo[d]imidazole2yl)3(3(3nitrophenyl)1phenyl1Hpyrazol4yl) prop2en1-one,,,No,10.1016/j.molliq.2018.12.081
O=C(/C=C/c1cn(-c2ccccc2)nc1-c1cccc([N+](=O)[O-])c1)c1nc2ccccc2[nH]1,303.15,ethanol,CCO,6.2e-05,0.0010510061422154132,-2.9783947458913906,(E)1(1Hbenzo[d]imidazole2yl)3(3(3nitrophenyl)1phenyl1Hpyrazol4yl) prop2en1-one,,,No,10.1016/j.molliq.2018.12.081
O=C(/C=C/c1cn(-c2ccccc2)nc1-c1cccc([N+](=O)[O-])c1)c1nc2ccccc2[nH]1,308.15,ethanol,CCO,7.01e-05,0.0011814768174874836,-2.92757479551789,(E)1(1Hbenzo[d]imidazole2yl)3(3(3nitrophenyl)1phenyl1Hpyrazol4yl) prop2en1-one,,,No,10.1016/j.molliq.2018.12.081
O=C(/C=C/c1cn(-c2ccccc2)nc1-c1cccc([N+](=O)[O-])c1)c1nc2ccccc2[nH]1,313.15,ethanol,CCO,8.42e-05,0.0014114026390414794,-2.8503490748570495,(E)1(1Hbenzo[d]imidazole2yl)3(3(3nitrophenyl)1phenyl1Hpyrazol4yl) prop2en1-one,,,No,10.1016/j.molliq.2018.12.081
O=C(/C=C/c1cn(-c2ccccc2)nc1-c1cccc([N+](=O)[O-])c1)c1nc2ccccc2[nH]1,318.15,ethanol,CCO,9.460000000000001e-05,0.0015764735608027245,-2.80231330845161,(E)1(1Hbenzo[d]imidazole2yl)3(3(3nitrophenyl)1phenyl1Hpyrazol4yl) prop2en1-one,,,No,10.1016/j.molliq.2018.12.081
O=C(/C=C/c1cn(-c2ccccc2)nc1-c1cccc([N+](=O)[O-])c1)c1nc2ccccc2[nH]1,323.15,ethanol,CCO,0.0001032,0.001709834576441671,-2.767045904820576,(E)1(1Hbenzo[d]imidazole2yl)3(3(3nitrophenyl)1phenyl1Hpyrazol4yl) prop2en1-one,,,No,10.1016/j.molliq.2018.12.081