SMILES_Solute,Temperature_K,Solvent,SMILES_Solvent,Solubility(mole_fraction),Solubility(mol/L),LogS(mol/L),Compound_Name,CAS,PubChem_CID,FDA_Approved,Source
Cc1cc(C(=O)O)ccc1[N+](=O)[O-],303.15,ethanol,CCO,0.0113,0.19373163639661942,-0.7127994531549928,3-methyl-4-nitrobenzoic acid,3113-71-1,18370,No,10.1016/j.jct.2016.07.023
Cc1cc(C(=O)O)ccc1[N+](=O)[O-],305.65,ethanol,CCO,0.01186,0.2028492223787236,-0.6928266528217535,3-methyl-4-nitrobenzoic acid,3113-71-1,18370,No,10.1016/j.jct.2016.07.023
Cc1cc(C(=O)O)ccc1[N+](=O)[O-],308.15,ethanol,CCO,0.0125,0.21332887844897486,-0.6709503498852853,3-methyl-4-nitrobenzoic acid,3113-71-1,18370,No,10.1016/j.jct.2016.07.023
Cc1cc(C(=O)O)ccc1[N+](=O)[O-],310.65,ethanol,CCO,0.01316,0.22411573400679738,-0.649527652824764,3-methyl-4-nitrobenzoic acid,3113-71-1,18370,No,10.1016/j.jct.2016.07.023
Cc1cc(C(=O)O)ccc1[N+](=O)[O-],313.15,ethanol,CCO,0.01377,0.23402270537743897,-0.6307420043772204,3-methyl-4-nitrobenzoic acid,3113-71-1,18370,No,10.1016/j.jct.2016.07.023
Cc1cc(C(=O)O)ccc1[N+](=O)[O-],315.65,ethanol,CCO,0.01458,0.24725301022545748,-0.6068584123036957,3-methyl-4-nitrobenzoic acid,3113-71-1,18370,No,10.1016/j.jct.2016.07.023
Cc1cc(C(=O)O)ccc1[N+](=O)[O-],318.15,ethanol,CCO,0.01545,0.2614840339045851,-0.5825548238094219,3-methyl-4-nitrobenzoic acid,3113-71-1,18370,No,10.1016/j.jct.2016.07.023
CCCCCCOC(=O)NC(=N)c1ccc(NCc2nc3cc(C(=O)N(CCC(=O)OCC)c4ccccn4)ccc3n2C)cc1.CS(=O)(=O)O,287.37,ethanol,CCO,0.0009199999999999999,0.015882339271233795,-1.799085531016749,Dabigatran etexilate mesylat,872728-81-9,135566083,Yes,10.1016/j.jct.2016.07.048
CCCCCCOC(=O)NC(=N)c1ccc(NCc2nc3cc(C(=O)N(CCC(=O)OCC)c4ccccn4)ccc3n2C)cc1.CS(=O)(=O)O,292.2,ethanol,CCO,0.00116,0.019923972684260972,-1.7006240623563809,Dabigatran etexilate mesylat,872728-81-9,135566083,Yes,10.1016/j.jct.2016.07.048
CCCCCCOC(=O)NC(=N)c1ccc(NCc2nc3cc(C(=O)N(CCC(=O)OCC)c4ccccn4)ccc3n2C)cc1.CS(=O)(=O)O,297.95,ethanol,CCO,0.0015300000000000001,0.0261216445336499,-1.582999484770365,Dabigatran etexilate mesylat,872728-81-9,135566083,Yes,10.1016/j.jct.2016.07.048
CCCCCCOC(=O)NC(=N)c1ccc(NCc2nc3cc(C(=O)N(CCC(=O)OCC)c4ccccn4)ccc3n2C)cc1.CS(=O)(=O)O,303.97,ethanol,CCO,0.0020800000000000003,0.03529334581684957,-1.4523071684771691,Dabigatran etexilate mesylat,872728-81-9,135566083,Yes,10.1016/j.jct.2016.07.048
CCCCCCOC(=O)NC(=N)c1ccc(NCc2nc3cc(C(=O)N(CCC(=O)OCC)c4ccccn4)ccc3n2C)cc1.CS(=O)(=O)O,308.88,ethanol,CCO,0.00267,0.04508190998488203,-1.3459976924856711,Dabigatran etexilate mesylat,872728-81-9,135566083,Yes,10.1016/j.jct.2016.07.048
CCCCCCOC(=O)NC(=N)c1ccc(NCc2nc3cc(C(=O)N(CCC(=O)OCC)c4ccccn4)ccc3n2C)cc1.CS(=O)(=O)O,313.59,ethanol,CCO,0.00343,0.05765089208355507,-1.239193968092303,Dabigatran etexilate mesylat,872728-81-9,135566083,Yes,10.1016/j.jct.2016.07.048
CCCCCCOC(=O)NC(=N)c1ccc(NCc2nc3cc(C(=O)N(CCC(=O)OCC)c4ccccn4)ccc3n2C)cc1.CS(=O)(=O)O,318.4,ethanol,CCO,0.00458,0.07664905908563106,-1.1154931720089079,Dabigatran etexilate mesylat,872728-81-9,135566083,Yes,10.1016/j.jct.2016.07.048
CCCCCCOC(=O)NC(=N)c1ccc(NCc2nc3cc(C(=O)N(CCC(=O)OCC)c4ccccn4)ccc3n2C)cc1.CS(=O)(=O)O,323.39,ethanol,CCO,0.00626,0.1043457418755996,-0.9815252688569115,Dabigatran etexilate mesylat,872728-81-9,135566083,Yes,10.1016/j.jct.2016.07.048
CO[C@@]1(NC(=O)Cc2cccs2)C(=O)N2C(C(=O)O)=C(COC(N)=O)CS[C@@H]21,278.15,ethanol,CCO,0.0004034,0.007031038421644757,-2.1529805288229005,Cefoxitin acid,35607-66-0,441199,Yes,10.1016/j.jct.2016.07.049
CO[C@@]1(NC(=O)Cc2cccs2)C(=O)N2C(C(=O)O)=C(COC(N)=O)CS[C@@H]21,283.15,ethanol,CCO,0.0004838,0.008380161465749507,-2.076747613468952,Cefoxitin acid,35607-66-0,441199,Yes,10.1016/j.jct.2016.07.049
CO[C@@]1(NC(=O)Cc2cccs2)C(=O)N2C(C(=O)O)=C(COC(N)=O)CS[C@@H]21,288.15,ethanol,CCO,0.0006029,0.010388093931059364,-1.983464132054255,Cefoxitin acid,35607-66-0,441199,Yes,10.1016/j.jct.2016.07.049
CO[C@@]1(NC(=O)Cc2cccs2)C(=O)N2C(C(=O)O)=C(COC(N)=O)CS[C@@H]21,293.15,ethanol,CCO,0.0007389,0.012672944646148885,-1.8971224620709355,Cefoxitin acid,35607-66-0,441199,Yes,10.1016/j.jct.2016.07.049
CO[C@@]1(NC(=O)Cc2cccs2)C(=O)N2C(C(=O)O)=C(COC(N)=O)CS[C@@H]21,298.15,ethanol,CCO,0.0008521000000000001,0.014539835246573294,-1.837440514516147,Cefoxitin acid,35607-66-0,441199,Yes,10.1016/j.jct.2016.07.049
CO[C@@]1(NC(=O)Cc2cccs2)C(=O)N2C(C(=O)O)=C(COC(N)=O)CS[C@@H]21,303.15,ethanol,CCO,0.0010279999999999998,0.017443211093099906,-1.7583735634604976,Cefoxitin acid,35607-66-0,441199,Yes,10.1016/j.jct.2016.07.049
CO[C@@]1(NC(=O)Cc2cccs2)C(=O)N2C(C(=O)O)=C(COC(N)=O)CS[C@@H]21,308.15,ethanol,CCO,0.001176,0.01984244083384416,-1.7024049059989328,Cefoxitin acid,35607-66-0,441199,Yes,10.1016/j.jct.2016.07.049
CC1=NN(c2ccc(C)cc2)C(=O)C1,278.15,ethanol,CCO,0.01465,0.25903321230624854,-0.5866445486731734,"2,4-dihydro-5-methyl-2-(4-methylphenyl)-3H-pyrazol-3-one",86-92-0,66591,No,10.1016/j.jct.2016.08.007
CC1=NN(c2ccc(C)cc2)C(=O)C1,280.65,ethanol,CCO,0.01609,0.2841354044441746,-0.5464746480203011,"2,4-dihydro-5-methyl-2-(4-methylphenyl)-3H-pyrazol-3-one",86-92-0,66591,No,10.1016/j.jct.2016.08.007
CC1=NN(c2ccc(C)cc2)C(=O)C1,283.15,ethanol,CCO,0.01761,0.3103500237347658,-0.508148217064866,"2,4-dihydro-5-methyl-2-(4-methylphenyl)-3H-pyrazol-3-one",86-92-0,66591,No,10.1016/j.jct.2016.08.007
CC1=NN(c2ccc(C)cc2)C(=O)C1,285.65,ethanol,CCO,0.01913,0.3370164875914901,-0.4723488519629398,"2,4-dihydro-5-methyl-2-(4-methylphenyl)-3H-pyrazol-3-one",86-92-0,66591,No,10.1016/j.jct.2016.08.007
CC1=NN(c2ccc(C)cc2)C(=O)C1,288.15,ethanol,CCO,0.02094,0.3682951830315719,-0.4338039612876024,"2,4-dihydro-5-methyl-2-(4-methylphenyl)-3H-pyrazol-3-one",86-92-0,66591,No,10.1016/j.jct.2016.08.007
CC1=NN(c2ccc(C)cc2)C(=O)C1,290.65,ethanol,CCO,0.02286,0.4020470957670659,-0.3957230707121613,"2,4-dihydro-5-methyl-2-(4-methylphenyl)-3H-pyrazol-3-one",86-92-0,66591,No,10.1016/j.jct.2016.08.007
CC1=NN(c2ccc(C)cc2)C(=O)C1,293.15,ethanol,CCO,0.0248,0.4358417611304625,-0.36067115922149834,"2,4-dihydro-5-methyl-2-(4-methylphenyl)-3H-pyrazol-3-one",86-92-0,66591,No,10.1016/j.jct.2016.08.007
CC1=NN(c2ccc(C)cc2)C(=O)C1,295.65,ethanol,CCO,0.02702,0.47460855780291744,-0.32366443515981663,"2,4-dihydro-5-methyl-2-(4-methylphenyl)-3H-pyrazol-3-one",86-92-0,66591,No,10.1016/j.jct.2016.08.007
CC1=NN(c2ccc(C)cc2)C(=O)C1,298.15,ethanol,CCO,0.02936,0.5156993295009772,-0.2876034332514489,"2,4-dihydro-5-methyl-2-(4-methylphenyl)-3H-pyrazol-3-one",86-92-0,66591,No,10.1016/j.jct.2016.08.007
CC1=NN(c2ccc(C)cc2)C(=O)C1,300.65,ethanol,CCO,0.03185,0.5591189147806422,-0.2524958154753468,"2,4-dihydro-5-methyl-2-(4-methylphenyl)-3H-pyrazol-3-one",86-92-0,66591,No,10.1016/j.jct.2016.08.007
CC1=NN(c2ccc(C)cc2)C(=O)C1,303.15,ethanol,CCO,0.03453,0.6062397828249552,-0.21735556764763256,"2,4-dihydro-5-methyl-2-(4-methylphenyl)-3H-pyrazol-3-one",86-92-0,66591,No,10.1016/j.jct.2016.08.007
CC1=NN(c2ccc(C)cc2)C(=O)C1,305.65,ethanol,CCO,0.03725,0.6539128742889209,-0.18448011212860135,"2,4-dihydro-5-methyl-2-(4-methylphenyl)-3H-pyrazol-3-one",86-92-0,66591,No,10.1016/j.jct.2016.08.007
CC1=NN(c2ccc(C)cc2)C(=O)C1,308.15,ethanol,CCO,0.04035,0.7086102218390816,-0.14959258717601528,"2,4-dihydro-5-methyl-2-(4-methylphenyl)-3H-pyrazol-3-one",86-92-0,66591,No,10.1016/j.jct.2016.08.007
CC1=NN(c2ccc(C)cc2)C(=O)C1,310.65,ethanol,CCO,0.0436,0.7661435052562932,-0.11568987566282607,"2,4-dihydro-5-methyl-2-(4-methylphenyl)-3H-pyrazol-3-one",86-92-0,66591,No,10.1016/j.jct.2016.08.007
CC1=NN(c2ccc(C)cc2)C(=O)C1,313.15,ethanol,CCO,0.04713,0.8290219897997851,-0.08143394964026172,"2,4-dihydro-5-methyl-2-(4-methylphenyl)-3H-pyrazol-3-one",86-92-0,66591,No,10.1016/j.jct.2016.08.007
O=C(O)c1ccccc1Nc1ccccc1,283.15,ethanol,CCO,0.007032,0.12260832775919638,-0.9114800308205668,N-phenylanthranilic acid,91-40-7,4386,No,10.1016/j.jct.2016.08.017
O=C(O)c1ccccc1Nc1ccccc1,285.65,ethanol,CCO,0.00768,0.13373870244397423,-0.8737428947158676,N-phenylanthranilic acid,91-40-7,4386,No,10.1016/j.jct.2016.08.017
O=C(O)c1ccccc1Nc1ccccc1,288.15,ethanol,CCO,0.008536,0.14825389963730073,-0.82899387422888,N-phenylanthranilic acid,91-40-7,4386,No,10.1016/j.jct.2016.08.017
O=C(O)c1ccccc1Nc1ccccc1,290.65,ethanol,CCO,0.009578999999999999,0.16621025973296283,-0.7793421718401878,N-phenylanthranilic acid,91-40-7,4386,No,10.1016/j.jct.2016.08.017
O=C(O)c1ccccc1Nc1ccccc1,293.15,ethanol,CCO,0.011200000000000002,0.19412453010367664,-0.7119195825119481,N-phenylanthranilic acid,91-40-7,4386,No,10.1016/j.jct.2016.08.017
O=C(O)c1ccccc1Nc1ccccc1,295.65,ethanol,CCO,0.013000000000000001,0.2251025076334343,-0.6476196669484043,N-phenylanthranilic acid,91-40-7,4386,No,10.1016/j.jct.2016.08.017
O=C(O)c1ccccc1Nc1ccccc1,298.15,ethanol,CCO,0.01525,0.2640234819795869,-0.5783574457034975,N-phenylanthranilic acid,91-40-7,4386,No,10.1016/j.jct.2016.08.017
O=C(O)c1ccccc1Nc1ccccc1,300.65,ethanol,CCO,0.01711,0.2958574369908978,-0.5289175093563317,N-phenylanthranilic acid,91-40-7,4386,No,10.1016/j.jct.2016.08.017
O=C(O)c1ccccc1Nc1ccccc1,303.15,ethanol,CCO,0.019610000000000002,0.33905125666837044,-0.4697346416036581,N-phenylanthranilic acid,91-40-7,4386,No,10.1016/j.jct.2016.08.017
O=C(O)c1ccccc1Nc1ccccc1,305.65,ethanol,CCO,0.02189,0.37823803668222505,-0.42223479941861597,N-phenylanthranilic acid,91-40-7,4386,No,10.1016/j.jct.2016.08.017
O=C(O)c1ccccc1Nc1ccccc1,308.15,ethanol,CCO,0.024929999999999997,0.43088683503635894,-0.3656367747870241,N-phenylanthranilic acid,91-40-7,4386,No,10.1016/j.jct.2016.08.017
O=C(O)c1ccccc1Nc1ccccc1,310.65,ethanol,CCO,0.027639999999999998,0.47772080588487725,-0.32082584374025236,N-phenylanthranilic acid,91-40-7,4386,No,10.1016/j.jct.2016.08.017
O=C(O)c1ccccc1Nc1ccccc1,313.15,ethanol,CCO,0.03108,0.5376446816343228,-0.26950464586779405,N-phenylanthranilic acid,91-40-7,4386,No,10.1016/j.jct.2016.08.017
O=C(O)c1ccccc1Nc1ccccc1,315.65,ethanol,CCO,0.03394,0.5871014780580478,-0.2312868262623533,N-phenylanthranilic acid,91-40-7,4386,No,10.1016/j.jct.2016.08.017
O=C(O)c1ccccc1Nc1ccccc1,318.15,ethanol,CCO,0.037450000000000004,0.6483104062008588,-0.18821700736618513,N-phenylanthranilic acid,91-40-7,4386,No,10.1016/j.jct.2016.08.017
Cc1ccc(S(C)(=O)=O)cc1,278.15,ethanol,CCO,0.007212,0.12656322901653264,-0.8976924535194952,1-methyl-4-(methylsulfonyl)benzene,3185-99-7,18521,No,10.1016/j.jct.2016.08.021
Cc1ccc(S(C)(=O)=O)cc1,283.15,ethanol,CCO,0.009932,0.17367929476586003,-0.760251953026214,1-methyl-4-(methylsulfonyl)benzene,3185-99-7,18521,No,10.1016/j.jct.2016.08.021
Cc1ccc(S(C)(=O)=O)cc1,288.15,ethanol,CCO,0.01369,0.23901143576264966,-0.6215813192619055,1-methyl-4-(methylsulfonyl)benzene,3185-99-7,18521,No,10.1016/j.jct.2016.08.021
Cc1ccc(S(C)(=O)=O)cc1,293.15,ethanol,CCO,0.018009999999999998,0.314323969326039,-0.502622499831555,1-methyl-4-(methylsulfonyl)benzene,3185-99-7,18521,No,10.1016/j.jct.2016.08.021
Cc1ccc(S(C)(=O)=O)cc1,298.15,ethanol,CCO,0.02412,0.4213854987526071,-0.3753204139583085,1-methyl-4-(methylsulfonyl)benzene,3185-99-7,18521,No,10.1016/j.jct.2016.08.021
Cc1ccc(S(C)(=O)=O)cc1,303.15,ethanol,CCO,0.03211,0.5623425426324585,-0.24999905977420803,1-methyl-4-(methylsulfonyl)benzene,3185-99-7,18521,No,10.1016/j.jct.2016.08.021
Cc1ccc(S(C)(=O)=O)cc1,308.15,ethanol,CCO,0.042050000000000004,0.7397754243578184,-0.13090010022131213,1-methyl-4-(methylsulfonyl)benzene,3185-99-7,18521,No,10.1016/j.jct.2016.08.021
Cc1ccc(S(C)(=O)=O)cc1,313.15,ethanol,CCO,0.055,0.9755131890769015,-0.010766854506676596,1-methyl-4-(methylsulfonyl)benzene,3185-99-7,18521,No,10.1016/j.jct.2016.08.021
Cc1ccc(S(C)(=O)=O)cc1,318.15,ethanol,CCO,0.07121000000000001,1.277550051699716,0.10637792387616933,1-methyl-4-(methylsulfonyl)benzene,3185-99-7,18521,No,10.1016/j.jct.2016.08.021
O=[N+]([O-])c1cn[nH]c1,278.15,ethanol,CCO,0.03697,0.6688334449037019,-0.1746820182036678,4-nitropyrazole,2075-46-9,16376,No,10.1016/j.jct.2016.08.023
O=[N+]([O-])c1cn[nH]c1,280.65,ethanol,CCO,0.03887,0.7026791865393797,-0.15324291013855493,4-nitropyrazole,2075-46-9,16376,No,10.1016/j.jct.2016.08.023
O=[N+]([O-])c1cn[nH]c1,283.15,ethanol,CCO,0.040519999999999994,0.7311557002860148,-0.13599012977991123,4-nitropyrazole,2075-46-9,16376,No,10.1016/j.jct.2016.08.023
O=[N+]([O-])c1cn[nH]c1,285.65,ethanol,CCO,0.04287,0.7739807948794232,-0.11126981552042829,4-nitropyrazole,2075-46-9,16376,No,10.1016/j.jct.2016.08.023
O=[N+]([O-])c1cn[nH]c1,288.15,ethanol,CCO,0.04505,0.8123493386390727,-0.0902571687674119,4-nitropyrazole,2075-46-9,16376,No,10.1016/j.jct.2016.08.023
O=[N+]([O-])c1cn[nH]c1,290.65,ethanol,CCO,0.04703,0.8481120715928371,-0.07154675522160879,4-nitropyrazole,2075-46-9,16376,No,10.1016/j.jct.2016.08.023
O=[N+]([O-])c1cn[nH]c1,293.15,ethanol,CCO,0.049370000000000004,0.8900665176406386,-0.05057753586655437,4-nitropyrazole,2075-46-9,16376,No,10.1016/j.jct.2016.08.023
O=[N+]([O-])c1cn[nH]c1,295.65,ethanol,CCO,0.05207,0.9387834896954231,-0.02743455690602272,4-nitropyrazole,2075-46-9,16376,No,10.1016/j.jct.2016.08.023
O=[N+]([O-])c1cn[nH]c1,298.15,ethanol,CCO,0.05485,0.98940612218097,-0.004625406665200827,4-nitropyrazole,2075-46-9,16376,No,10.1016/j.jct.2016.08.023
O=[N+]([O-])c1cn[nH]c1,300.65,ethanol,CCO,0.05815000000000001,1.0493137760658162,0.020905374597114272,4-nitropyrazole,2075-46-9,16376,No,10.1016/j.jct.2016.08.023
O=[N+]([O-])c1cn[nH]c1,303.15,ethanol,CCO,0.06141,1.1090466442911198,0.044949812093477086,4-nitropyrazole,2075-46-9,16376,No,10.1016/j.jct.2016.08.023
O=[N+]([O-])c1cn[nH]c1,305.65,ethanol,CCO,0.06474,1.1698965834940684,0.06814747268383312,4-nitropyrazole,2075-46-9,16376,No,10.1016/j.jct.2016.08.023
O=[N+]([O-])c1cn[nH]c1,308.15,ethanol,CCO,0.06765,1.2228285424344711,0.08736556717960106,4-nitropyrazole,2075-46-9,16376,No,10.1016/j.jct.2016.08.023
O=[N+]([O-])c1cn[nH]c1,310.65,ethanol,CCO,0.07144,1.2929885438584139,0.11159467695996407,4-nitropyrazole,2075-46-9,16376,No,10.1016/j.jct.2016.08.023
O=[N+]([O-])c1cn[nH]c1,313.15,ethanol,CCO,0.0747,1.3531324344285802,0.13134030415627795,4-nitropyrazole,2075-46-9,16376,No,10.1016/j.jct.2016.08.023
O=[N+]([O-])c1cn[nH]c1,315.65,ethanol,CCO,0.07841000000000001,1.4218020508946554,0.15283913634572086,4-nitropyrazole,2075-46-9,16376,No,10.1016/j.jct.2016.08.023
O=[N+]([O-])c1cn[nH]c1,318.15,ethanol,CCO,0.08285000000000001,1.5052429829049294,0.17760661130335337,4-nitropyrazole,2075-46-9,16376,No,10.1016/j.jct.2016.08.023
CO[C@@]1(NC(=O)CSCC#N)C(=O)N2C(C(=O)O)=C(CSc3nnnn3C)CS[C@@H]21,278.15,ethanol,CCO,0.00026589999999999996,0.004633852217130563,-2.3340578208499148,Cefmetazole acid,56796-20-4,42008,Yes,10.1016/j.jct.2016.08.024
CO[C@@]1(NC(=O)CSCC#N)C(=O)N2C(C(=O)O)=C(CSc3nnnn3C)CS[C@@H]21,283.15,ethanol,CCO,0.00027570000000000003,0.004774554748008694,-2.321067122404633,Cefmetazole acid,56796-20-4,42008,Yes,10.1016/j.jct.2016.08.024
CO[C@@]1(NC(=O)CSCC#N)C(=O)N2C(C(=O)O)=C(CSc3nnnn3C)CS[C@@H]21,288.15,ethanol,CCO,0.000343,0.00590842568701731,-2.228528222421929,Cefmetazole acid,56796-20-4,42008,Yes,10.1016/j.jct.2016.08.024
CO[C@@]1(NC(=O)CSCC#N)C(=O)N2C(C(=O)O)=C(CSc3nnnn3C)CS[C@@H]21,293.15,ethanol,CCO,0.00043499999999999995,0.007458458347634274,-2.1273509312815175,Cefmetazole acid,56796-20-4,42008,Yes,10.1016/j.jct.2016.08.024
CO[C@@]1(NC(=O)CSCC#N)C(=O)N2C(C(=O)O)=C(CSc3nnnn3C)CS[C@@H]21,298.15,ethanol,CCO,0.0004898,0.008354688275571754,-2.078069749567674,Cefmetazole acid,56796-20-4,42008,Yes,10.1016/j.jct.2016.08.024
CO[C@@]1(NC(=O)CSCC#N)C(=O)N2C(C(=O)O)=C(CSc3nnnn3C)CS[C@@H]21,303.15,ethanol,CCO,0.0006591,0.011179549082880885,-1.951575712976063,Cefmetazole acid,56796-20-4,42008,Yes,10.1016/j.jct.2016.08.024
NC(=O)N1c2ccccc2CC(=O)c2ccccc21,288.15,ethanol,CCO,0.000273,0.004702295252792989,-2.3276901054039634,Oxcarbazepine,28721-07-5,34312,Yes,10.1016/j.jct.2016.09.011
NC(=O)N1c2ccccc2CC(=O)c2ccccc21,293.15,ethanol,CCO,0.000322,0.005520349694388912,-2.2580334103988564,Oxcarbazepine,28721-07-5,34312,Yes,10.1016/j.jct.2016.09.011
NC(=O)N1c2ccccc2CC(=O)c2ccccc21,298.15,ethanol,CCO,0.000383,0.006532265690271474,-2.184936159288684,Oxcarbazepine,28721-07-5,34312,Yes,10.1016/j.jct.2016.09.011
NC(=O)N1c2ccccc2CC(=O)c2ccccc21,303.15,ethanol,CCO,0.000488,0.00827596122003155,-2.0821815530432493,Oxcarbazepine,28721-07-5,34312,Yes,10.1016/j.jct.2016.09.011
NC(=O)N1c2ccccc2CC(=O)c2ccccc21,308.15,ethanol,CCO,0.000617,0.010404709227831955,-1.9827700521666831,Oxcarbazepine,28721-07-5,34312,Yes,10.1016/j.jct.2016.09.011
O=Cc1ccc([N+](=O)[O-])cc1,273.15,ethanol,CCO,0.0151,0.26856589012333254,-0.570949146812138,4-nitrobenzaldehyde,555-16-8,541,No,10.1016/j.jct.2016.09.012
O=Cc1ccc([N+](=O)[O-])cc1,278.15,ethanol,CCO,0.01767,0.3133916995516336,-0.503912510377515,4-nitrobenzaldehyde,555-16-8,541,No,10.1016/j.jct.2016.09.012
O=Cc1ccc([N+](=O)[O-])cc1,283.15,ethanol,CCO,0.01993,0.352068008026241,-0.45337343692615734,4-nitrobenzaldehyde,555-16-8,541,No,10.1016/j.jct.2016.09.012
O=Cc1ccc([N+](=O)[O-])cc1,288.15,ethanol,CCO,0.0232,0.4089884117668527,-0.3882889970709181,4-nitrobenzaldehyde,555-16-8,541,No,10.1016/j.jct.2016.09.012
O=Cc1ccc([N+](=O)[O-])cc1,293.15,ethanol,CCO,0.02649,0.466350443228534,-0.3312876061390061,4-nitrobenzaldehyde,555-16-8,541,No,10.1016/j.jct.2016.09.012
O=Cc1ccc([N+](=O)[O-])cc1,298.15,ethanol,CCO,0.03101,0.5456085548261517,-0.263118828812237,4-nitrobenzaldehyde,555-16-8,541,No,10.1016/j.jct.2016.09.012
O=Cc1ccc([N+](=O)[O-])cc1,303.15,ethanol,CCO,0.03656,0.6432327543833661,-0.19163184876556372,4-nitrobenzaldehyde,555-16-8,541,No,10.1016/j.jct.2016.09.012
O=Cc1ccc([N+](=O)[O-])cc1,308.15,ethanol,CCO,0.04221,0.7427143160684148,-0.12917820483141534,4-nitrobenzaldehyde,555-16-8,541,No,10.1016/j.jct.2016.09.012
O=Cc1ccc([N+](=O)[O-])cc1,313.15,ethanol,CCO,0.0498,0.8784490574452852,-0.05628341881512674,4-nitrobenzaldehyde,555-16-8,541,No,10.1016/j.jct.2016.09.012
C[C@@H]1O[C@@H](OC[C@H]2O[C@@H](Oc3c(-c4ccc(OCCO)c(OCCO)c4)oc4cc(OCCO)cc(O)c4c3=O)[C@H](O)[C@@H](O)[C@@H]2O)[C@H](O)[C@H](O)[C@H]1O,288.15,ethanol,CCO,0.000228,0.003927014875769283,-2.4059374535927653,Troxerutin,7085-55-4,5486699,No,10.1016/j.jct.2016.09.015
C[C@@H]1O[C@@H](OC[C@H]2O[C@@H](Oc3c(-c4ccc(OCCO)c(OCCO)c4)oc4cc(OCCO)cc(O)c4c3=O)[C@H](O)[C@@H](O)[C@@H]2O)[C@H](O)[C@H](O)[C@H]1O,293.15,ethanol,CCO,0.000252,0.004319971178483576,-2.36451915065437,Troxerutin,7085-55-4,5486699,No,10.1016/j.jct.2016.09.015
C[C@@H]1O[C@@H](OC[C@H]2O[C@@H](Oc3c(-c4ccc(OCCO)c(OCCO)c4)oc4cc(OCCO)cc(O)c4c3=O)[C@H](O)[C@@H](O)[C@@H]2O)[C@H](O)[C@H](O)[C@H]1O,298.15,ethanol,CCO,0.00029,0.00494564183777397,-2.3057773383408002,Troxerutin,7085-55-4,5486699,No,10.1016/j.jct.2016.09.015
C[C@@H]1O[C@@H](OC[C@H]2O[C@@H](Oc3c(-c4ccc(OCCO)c(OCCO)c4)oc4cc(OCCO)cc(O)c4c3=O)[C@H](O)[C@@H](O)[C@@H]2O)[C@H](O)[C@H](O)[C@H]1O,303.15,ethanol,CCO,0.000346,0.005866958661612565,-2.2315869717967587,Troxerutin,7085-55-4,5486699,No,10.1016/j.jct.2016.09.015
C[C@@H]1O[C@@H](OC[C@H]2O[C@@H](Oc3c(-c4ccc(OCCO)c(OCCO)c4)oc4cc(OCCO)cc(O)c4c3=O)[C@H](O)[C@@H](O)[C@@H]2O)[C@H](O)[C@H](O)[C@H]1O,308.15,ethanol,CCO,0.000407,0.00686195624496159,-2.163552055535503,Troxerutin,7085-55-4,5486699,No,10.1016/j.jct.2016.09.015
C[C@@H]1O[C@@H](OC[C@H]2O[C@@H](Oc3c(-c4ccc(OCCO)c(OCCO)c4)oc4cc(OCCO)cc(O)c4c3=O)[C@H](O)[C@@H](O)[C@@H]2O)[C@H](O)[C@H](O)[C@H]1O,313.15,ethanol,CCO,0.000468,0.007847863036285534,-2.1052485850247016,Troxerutin,7085-55-4,5486699,No,10.1016/j.jct.2016.09.015
C[C@@H]1O[C@@H](OC[C@H]2O[C@@H](Oc3c(-c4ccc(OCCO)c(OCCO)c4)oc4cc(OCCO)cc(O)c4c3=O)[C@H](O)[C@@H](O)[C@@H]2O)[C@H](O)[C@H](O)[C@H]1O,318.15,ethanol,CCO,0.000547,0.009119676213871207,-2.040020580643655,Troxerutin,7085-55-4,5486699,No,10.1016/j.jct.2016.09.015
C[C@@H]1O[C@@H](OC[C@H]2O[C@@H](Oc3c(-c4ccc(OCCO)c(OCCO)c4)oc4cc(OCCO)cc(O)c4c3=O)[C@H](O)[C@@H](O)[C@@H]2O)[C@H](O)[C@H](O)[C@H]1O,323.15,ethanol,CCO,0.000632,0.010476620573005021,-1.9797787844498018,Troxerutin,7085-55-4,5486699,No,10.1016/j.jct.2016.09.015
Nc1nnc[nH]1,283.15,ethanol,CCO,0.01125,0.19698918614877114,-0.7055576140659214,"3-amino-1,2,4-triazole",61-82-5,1639,No,10.1016/j.jct.2016.09.033
Nc1nnc[nH]1,285.65,ethanol,CCO,0.0126,0.2205083563361871,-0.6565749479560967,"3-amino-1,2,4-triazole",61-82-5,1639,No,10.1016/j.jct.2016.09.033