SMILES_Solute,Temperature_K,Solvent,SMILES_Solvent,Solubility(mole_fraction),Solubility(mol/L),LogS(mol/L),Compound_Name,CAS,PubChem_CID,FDA_Approved,Source
Cc1ccc(C(C)C)c(O)c1,293.15,ethanol,CCO,0.5574,21.583725415825256,1.3341264073486572,Thymol,89-83-8,6989,Yes,10.1016/j.jct.2015.09.010
Cc1ccc(C(C)C)c(O)c1,298.15,ethanol,CCO,0.6361,29.801768725813744,1.4742420400851743,Thymol,89-83-8,6989,Yes,10.1016/j.jct.2015.09.010
Cc1ccc(C(C)C)c(O)c1,303.15,ethanol,CCO,0.6898,37.6936361499295,1.5762680340715147,Thymol,89-83-8,6989,Yes,10.1016/j.jct.2015.09.010
Cc1ccc(C(C)C)c(O)c1,308.15,ethanol,CCO,0.7568,52.44381711186083,1.7196942941981952,Thymol,89-83-8,6989,Yes,10.1016/j.jct.2015.09.010
Cc1ccc(C(C)C)c(O)c1,313.15,ethanol,CCO,0.8503,95.20344047065332,1.9786526432418399,Thymol,89-83-8,6989,Yes,10.1016/j.jct.2015.09.010
Cc1ncc(CO)c(CO)c1O.Cl,278.15,ethanol,CCO,0.00044699999999999997,0.007791302094865417,-2.1083899562736077,Vitamin B6 hydrochloride,58-56-0,6019,Yes,10.1016/j.jct.2015.09.026
Cc1ncc(CO)c(CO)c1O.Cl,283.15,ethanol,CCO,0.000484,0.008383627451457631,-2.0765680289494526,Vitamin B6 hydrochloride,58-56-0,6019,Yes,10.1016/j.jct.2015.09.026
Cc1ncc(CO)c(CO)c1O.Cl,288.15,ethanol,CCO,0.000557,0.009596786509306416,-2.017874166430101,Vitamin B6 hydrochloride,58-56-0,6019,Yes,10.1016/j.jct.2015.09.026
Cc1ncc(CO)c(CO)c1O.Cl,293.15,ethanol,CCO,0.0006510000000000001,0.011164381255375961,-1.952165341094301,Vitamin B6 hydrochloride,58-56-0,6019,Yes,10.1016/j.jct.2015.09.026
Cc1ncc(CO)c(CO)c1O.Cl,298.15,ethanol,CCO,0.0008010000000000001,0.013667189794592553,-1.864320774544551,Vitamin B6 hydrochloride,58-56-0,6019,Yes,10.1016/j.jct.2015.09.026
Cc1ncc(CO)c(CO)c1O.Cl,303.15,ethanol,CCO,0.000989,0.016780799905564917,-1.7751873411060688,Vitamin B6 hydrochloride,58-56-0,6019,Yes,10.1016/j.jct.2015.09.026
Cc1ncc(CO)c(CO)c1O.Cl,308.15,ethanol,CCO,0.001176,0.01984244083384416,-1.7024049059989328,Vitamin B6 hydrochloride,58-56-0,6019,Yes,10.1016/j.jct.2015.09.026
Cc1ncc(CO)c(CO)c1O.Cl,313.15,ethanol,CCO,0.0014349999999999999,0.024086728962924686,-1.6182221742568488,Vitamin B6 hydrochloride,58-56-0,6019,Yes,10.1016/j.jct.2015.09.026
CN(C)CCOC(c1ccccc1)c1ccccc1.Cl,278.15,ethanol,CCO,0.0217,0.38645241701840355,-0.412903972116952,Diphenhydramine hydrochloride,147-24-0,8980,Yes,10.1016/j.jct.2015.09.032
CN(C)CCOC(c1ccccc1)c1ccccc1.Cl,283.15,ethanol,CCO,0.0296,0.5281013566928721,-0.2772827168071478,Diphenhydramine hydrochloride,147-24-0,8980,Yes,10.1016/j.jct.2015.09.032
CN(C)CCOC(c1ccccc1)c1ccccc1.Cl,288.15,ethanol,CCO,0.0392,0.7025572852392843,-0.15331825839938398,Diphenhydramine hydrochloride,147-24-0,8980,Yes,10.1016/j.jct.2015.09.032
CN(C)CCOC(c1ccccc1)c1ccccc1.Cl,293.15,ethanol,CCO,0.0505,0.9115222237276225,-0.04023273839176411,Diphenhydramine hydrochloride,147-24-0,8980,Yes,10.1016/j.jct.2015.09.032
CN(C)CCOC(c1ccccc1)c1ccccc1.Cl,298.15,ethanol,CCO,0.0633,1.1521310734452068,0.061501889882173456,Diphenhydramine hydrochloride,147-24-0,8980,Yes,10.1016/j.jct.2015.09.032
CN(C)CCOC(c1ccccc1)c1ccccc1.Cl,303.15,ethanol,CCO,0.0774,1.422047646538844,0.1529141479283738,Diphenhydramine hydrochloride,147-24-0,8980,Yes,10.1016/j.jct.2015.09.032
CN(C)CCOC(c1ccccc1)c1ccccc1.Cl,308.15,ethanol,CCO,0.0924,1.7157508606502172,0.2344542254123645,Diphenhydramine hydrochloride,147-24-0,8980,Yes,10.1016/j.jct.2015.09.032
CN(C)CCOC(c1ccccc1)c1ccccc1.Cl,313.15,ethanol,CCO,0.1079,2.0272633536970126,0.30691016982187197,Diphenhydramine hydrochloride,147-24-0,8980,Yes,10.1016/j.jct.2015.09.032
CN(C)CCOC(c1ccccc1)c1ccccc1.Cl,318.15,ethanol,CCO,0.1204,2.2808448023537773,0.3580957351782541,Diphenhydramine hydrochloride,147-24-0,8980,Yes,10.1016/j.jct.2015.09.032
CN(C)CCOC(c1ccccc1)c1ccccc1.Cl,323.15,ethanol,CCO,0.1373,2.6365761279912996,0.42104031558374416,Diphenhydramine hydrochloride,147-24-0,8980,Yes,10.1016/j.jct.2015.09.032
O=C1NC(=O)c2ccccc21,283.15,ethanol,CCO,0.001163,0.020158650397233923,-1.695538546862122,Phthalimide,85-41-6,6809,No,10.1016/j.jct.2015.10.024
O=C1NC(=O)c2ccccc21,285.65,ethanol,CCO,0.001329,0.02299588732318908,-1.6383498280064555,Phthalimide,85-41-6,6809,No,10.1016/j.jct.2015.10.024
O=C1NC(=O)c2ccccc21,288.15,ethanol,CCO,0.001512,0.026075798136444332,-1.5837623896723347,Phthalimide,85-41-6,6809,No,10.1016/j.jct.2015.10.024
O=C1NC(=O)c2ccccc21,290.65,ethanol,CCO,0.001705,0.02935100540928413,-1.5323770175432654,Phthalimide,85-41-6,6809,No,10.1016/j.jct.2015.10.024
O=C1NC(=O)c2ccccc21,293.15,ethanol,CCO,0.001928,0.03310670889426974,-1.4800839898942248,Phthalimide,85-41-6,6809,No,10.1016/j.jct.2015.10.024
O=C1NC(=O)c2ccccc21,295.65,ethanol,CCO,0.002145,0.03673787161525767,-1.4348860078702794,Phthalimide,85-41-6,6809,No,10.1016/j.jct.2015.10.024
O=C1NC(=O)c2ccccc21,298.15,ethanol,CCO,0.002397,0.0409646253833664,-1.3875910123578798,Phthalimide,85-41-6,6809,No,10.1016/j.jct.2015.10.024
O=C1NC(=O)c2ccccc21,300.15,ethanol,CCO,0.002603,0.04437984568687183,-1.3528142121864026,Phthalimide,85-41-6,6809,No,10.1016/j.jct.2015.10.024
O=C1NC(=O)c2ccccc21,303.15,ethanol,CCO,0.003016,0.05127784745859871,-1.2900702139196927,Phthalimide,85-41-6,6809,No,10.1016/j.jct.2015.10.024
O=C1NC(=O)c2ccccc21,305.65,ethanol,CCO,0.00335,0.056807970488183895,-1.2455907259758128,Phthalimide,85-41-6,6809,No,10.1016/j.jct.2015.10.024
O=C1NC(=O)c2ccccc21,308.15,ethanol,CCO,0.003693,0.062468757422012564,-1.204337132602567,Phthalimide,85-41-6,6809,No,10.1016/j.jct.2015.10.024
O=C1NC(=O)c2ccccc21,310.65,ethanol,CCO,0.004088,0.06898475469485452,-1.161246875689488,Phthalimide,85-41-6,6809,No,10.1016/j.jct.2015.10.024
O=C1NC(=O)c2ccccc21,313.15,ethanol,CCO,0.004619,0.07777873583951848,-1.1091391198460934,Phthalimide,85-41-6,6809,No,10.1016/j.jct.2015.10.024
O=C1NC(=O)c2ccccc21,315.65,ethanol,CCO,0.005227,0.0878079720369984,-1.0564660529491703,Phthalimide,85-41-6,6809,No,10.1016/j.jct.2015.10.024
O=C1NC(=O)c2ccccc21,318.15,ethanol,CCO,0.005824,0.09761410134841123,-1.0104874395522208,Phthalimide,85-41-6,6809,No,10.1016/j.jct.2015.10.024
NC(N)=S,283.15,ethanol,CCO,0.01851,0.326510310284531,-0.4861031003644623,Thiourea,62-56-6,2723790,No,10.1016/j.jct.2015.11.004
NC(N)=S,288.15,ethanol,CCO,0.02059,0.3620099284720417,-0.44127951835773993,Thiourea,62-56-6,2723790,No,10.1016/j.jct.2015.11.004
NC(N)=S,293.15,ethanol,CCO,0.02221,0.3892905126877145,-0.4097261802468537,Thiourea,62-56-6,2723790,No,10.1016/j.jct.2015.11.004
NC(N)=S,298.15,ethanol,CCO,0.024980000000000002,0.43679495129363427,-0.35972239007893064,Thiourea,62-56-6,2723790,No,10.1016/j.jct.2015.11.004
NC(N)=S,303.15,ethanol,CCO,0.02701,0.47054682233800155,-0.32739715508204514,Thiourea,62-56-6,2723790,No,10.1016/j.jct.2015.11.004
NC(N)=S,308.15,ethanol,CCO,0.03149,0.5479555029956318,-0.2612547071873048,Thiourea,62-56-6,2723790,No,10.1016/j.jct.2015.11.004
NC(N)=S,313.15,ethanol,CCO,0.03481,0.6044960593838756,-0.21860652589240076,Thiourea,62-56-6,2723790,No,10.1016/j.jct.2015.11.004
COc1ccc2nc(S(=O)Cc3ncc(C)c(OC)c3C)[nH]c2c1,278.15,ethanol,CCO,0.001574,0.027466112440786866,-1.5612028063600383,Omeprazole,73590-58-6,4594,No,10.1016/j.jct.2015.11.005
COc1ccc2nc(S(=O)Cc3ncc(C)c(OC)c3C)[nH]c2c1,283.15,ethanol,CCO,0.001875,0.03252315722055477,-1.4878073014263904,Omeprazole,73590-58-6,4594,No,10.1016/j.jct.2015.11.005
COc1ccc2nc(S(=O)Cc3ncc(C)c(OC)c3C)[nH]c2c1,288.15,ethanol,CCO,0.002243,0.03871089026034067,-1.4121668408043329,Omeprazole,73590-58-6,4594,No,10.1016/j.jct.2015.11.005
COc1ccc2nc(S(=O)Cc3ncc(C)c(OC)c3C)[nH]c2c1,293.15,ethanol,CCO,0.002612,0.04488279421360543,-1.3479201135661718,Omeprazole,73590-58-6,4594,No,10.1016/j.jct.2015.11.005
COc1ccc2nc(S(=O)Cc3ncc(C)c(OC)c3C)[nH]c2c1,298.15,ethanol,CCO,0.003465,0.059280162105440605,-1.227090617420731,Omeprazole,73590-58-6,4594,No,10.1016/j.jct.2015.11.005
COc1ccc2nc(S(=O)Cc3ncc(C)c(OC)c3C)[nH]c2c1,303.15,ethanol,CCO,0.00413,0.07029655455607273,-1.1530659605271847,Omeprazole,73590-58-6,4594,No,10.1016/j.jct.2015.11.005
COc1ccc2nc(S(=O)Cc3ncc(C)c(OC)c3C)[nH]c2c1,308.15,ethanol,CCO,0.005085,0.08613540896069506,-1.0648182799633896,Omeprazole,73590-58-6,4594,No,10.1016/j.jct.2015.11.005
COc1ccc2nc(S(=O)Cc3ncc(C)c(OC)c3C)[nH]c2c1,313.15,ethanol,CCO,0.006047,0.1019709309532723,-0.991523615746572,Omeprazole,73590-58-6,4594,No,10.1016/j.jct.2015.11.005
COc1ccc2nc(S(=O)Cc3ncc(C)c(OC)c3C)[nH]c2c1,318.15,ethanol,CCO,0.007019,0.11778467086834266,-0.9289112272949659,Omeprazole,73590-58-6,4594,No,10.1016/j.jct.2015.11.005
COc1ccc2nc(S(=O)Cc3ncc(C)c(OC)c3C)[nH]c2c1,323.15,ethanol,CCO,0.008316,0.13892191161803577,-0.8572292492638635,Omeprazole,73590-58-6,4594,No,10.1016/j.jct.2015.11.005
COc1ccc2nc(S(=O)Cc3ncc(C)c(OC)c3C)[nH]c2c1,328.15,ethanol,CCO,0.009818,0.16327212815760284,-0.7870879464358311,Omeprazole,73590-58-6,4594,No,10.1016/j.jct.2015.11.005
COc1ccc2nc(S(=O)Cc3ncc(C)c(OC)c3C)[nH]c2c1,333.15,ethanol,CCO,0.01126,0.1864872654810086,-0.7293508191912347,Omeprazole,73590-58-6,4594,No,10.1016/j.jct.2015.11.005
CC(C)c1nc(N(C)S(C)(=O)=O)nc(-c2ccc(F)cc2)c1/C=C/[C@@H](O)C[C@@H](O)CC(=O)[O-].CC(C)c1nc(N(C)S(C)(=O)=O)nc(-c2ccc(F)cc2)c1/C=C/[C@@H](O)C[C@@H](O)CC(=O)[O-].[Ca+2],298.15,ethanol,CCO,0.000337,0.005747447102615038,-2.2405250171266458,Rosuvastatin calcium,147098-20-2,5282455,Yes,10.1016/j.jct.2015.11.019
CC(C)c1nc(N(C)S(C)(=O)=O)nc(-c2ccc(F)cc2)c1/C=C/[C@@H](O)C[C@@H](O)CC(=O)[O-].CC(C)c1nc(N(C)S(C)(=O)=O)nc(-c2ccc(F)cc2)c1/C=C/[C@@H](O)C[C@@H](O)CC(=O)[O-].[Ca+2],303.15,ethanol,CCO,0.000392,0.006647264826120897,-2.1773570186484714,Rosuvastatin calcium,147098-20-2,5282455,Yes,10.1016/j.jct.2015.11.019
CC(C)c1nc(N(C)S(C)(=O)=O)nc(-c2ccc(F)cc2)c1/C=C/[C@@H](O)C[C@@H](O)CC(=O)[O-].CC(C)c1nc(N(C)S(C)(=O)=O)nc(-c2ccc(F)cc2)c1/C=C/[C@@H](O)C[C@@H](O)CC(=O)[O-].[Ca+2],308.15,ethanol,CCO,0.000469,0.007907757013452279,-2.101946683988884,Rosuvastatin calcium,147098-20-2,5282455,Yes,10.1016/j.jct.2015.11.019
CC(C)c1nc(N(C)S(C)(=O)=O)nc(-c2ccc(F)cc2)c1/C=C/[C@@H](O)C[C@@H](O)CC(=O)[O-].CC(C)c1nc(N(C)S(C)(=O)=O)nc(-c2ccc(F)cc2)c1/C=C/[C@@H](O)C[C@@H](O)CC(=O)[O-].[Ca+2],313.15,ethanol,CCO,0.00057,0.00955927022577911,-2.019575261386522,Rosuvastatin calcium,147098-20-2,5282455,Yes,10.1016/j.jct.2015.11.019
CC(C)c1nc(N(C)S(C)(=O)=O)nc(-c2ccc(F)cc2)c1/C=C/[C@@H](O)C[C@@H](O)CC(=O)[O-].CC(C)c1nc(N(C)S(C)(=O)=O)nc(-c2ccc(F)cc2)c1/C=C/[C@@H](O)C[C@@H](O)CC(=O)[O-].[Ca+2],318.15,ethanol,CCO,0.000681,0.011355269242593497,-1.9448025638496729,Rosuvastatin calcium,147098-20-2,5282455,Yes,10.1016/j.jct.2015.11.019
CO/N=C(\C(=O)N[C@@H]1C(=O)N2C(C(=O)O)=C(CSc3nnnn3C)CS[C@H]12)c1csc(N)n1.CO/N=C(\C(=O)N[C@@H]1C(=O)N2C(C(=O)O)=C(CSc3nnnn3C)CS[C@H]12)c1csc(N)n1.Cl,283.15,ethanol,CCO,2.613e-05,0.00045240471026255743,-3.3444728820171665,Cefmenoxime hydrochloride,75738-58-8,87716431,Yes,10.1016/j.jct.2015.11.024
CO/N=C(\C(=O)N[C@@H]1C(=O)N2C(C(=O)O)=C(CSc3nnnn3C)CS[C@H]12)c1csc(N)n1.CO/N=C(\C(=O)N[C@@H]1C(=O)N2C(C(=O)O)=C(CSc3nnnn3C)CS[C@H]12)c1csc(N)n1.Cl,288.15,ethanol,CCO,2.83e-05,0.0004873347666330461,-3.312172604792949,Cefmenoxime hydrochloride,75738-58-8,87716431,Yes,10.1016/j.jct.2015.11.024
CO/N=C(\C(=O)N[C@@H]1C(=O)N2C(C(=O)O)=C(CSc3nnnn3C)CS[C@H]12)c1csc(N)n1.CO/N=C(\C(=O)N[C@@H]1C(=O)N2C(C(=O)O)=C(CSc3nnnn3C)CS[C@H]12)c1csc(N)n1.Cl,293.15,ethanol,CCO,3.029e-05,0.0005191385513363407,-3.2847167191254436,Cefmenoxime hydrochloride,75738-58-8,87716431,Yes,10.1016/j.jct.2015.11.024
CO/N=C(\C(=O)N[C@@H]1C(=O)N2C(C(=O)O)=C(CSc3nnnn3C)CS[C@H]12)c1csc(N)n1.CO/N=C(\C(=O)N[C@@H]1C(=O)N2C(C(=O)O)=C(CSc3nnnn3C)CS[C@H]12)c1csc(N)n1.Cl,298.15,ethanol,CCO,3.169e-05,0.0005402996700137973,-3.2673652977046146,Cefmenoxime hydrochloride,75738-58-8,87716431,Yes,10.1016/j.jct.2015.11.024
CO/N=C(\C(=O)N[C@@H]1C(=O)N2C(C(=O)O)=C(CSc3nnnn3C)CS[C@H]12)c1csc(N)n1.CO/N=C(\C(=O)N[C@@H]1C(=O)N2C(C(=O)O)=C(CSc3nnnn3C)CS[C@H]12)c1csc(N)n1.Cl,303.15,ethanol,CCO,3.804e-05,0.0006448276723560762,-3.1905563333405738,Cefmenoxime hydrochloride,75738-58-8,87716431,Yes,10.1016/j.jct.2015.11.024
CO/N=C(\C(=O)N[C@@H]1C(=O)N2C(C(=O)O)=C(CSc3nnnn3C)CS[C@H]12)c1csc(N)n1.CO/N=C(\C(=O)N[C@@H]1C(=O)N2C(C(=O)O)=C(CSc3nnnn3C)CS[C@H]12)c1csc(N)n1.Cl,308.15,ethanol,CCO,4.007e-05,0.0006753260249104016,-3.170486513633592,Cefmenoxime hydrochloride,75738-58-8,87716431,Yes,10.1016/j.jct.2015.11.024
CO/N=C(\C(=O)N[C@@H]1C(=O)N2C(C(=O)O)=C(CSc3nnnn3C)CS[C@H]12)c1csc(N)n1.CO/N=C(\C(=O)N[C@@H]1C(=O)N2C(C(=O)O)=C(CSc3nnnn3C)CS[C@H]12)c1csc(N)n1.Cl,313.15,ethanol,CCO,4.677e-05,0.0007839528564060888,-3.105710053155225,Cefmenoxime hydrochloride,75738-58-8,87716431,Yes,10.1016/j.jct.2015.11.024
CCOC(=O)Cc1c(C(=O)OCC)sc(N)c1C#N,273.15,ethanol,CCO,0.003095,0.054384222303110595,-1.264527077517986,Ethyl 5-amino-4-cyano-3-(2-ethoxy-2-oxoethyl)-2-thiophenecarboxylate,58168-20-0,2741370,No,10.1016/j.jct.2015.11.025
CCOC(=O)Cc1c(C(=O)OCC)sc(N)c1C#N,278.15,ethanol,CCO,0.00399,0.06979391247023667,-1.1561824555412878,Ethyl 5-amino-4-cyano-3-(2-ethoxy-2-oxoethyl)-2-thiophenecarboxylate,58168-20-0,2741370,No,10.1016/j.jct.2015.11.025
CCOC(=O)Cc1c(C(=O)OCC)sc(N)c1C#N,283.15,ethanol,CCO,0.005049,0.08785774208247775,-1.0562199621647226,Ethyl 5-amino-4-cyano-3-(2-ethoxy-2-oxoethyl)-2-thiophenecarboxylate,58168-20-0,2741370,No,10.1016/j.jct.2015.11.025
CCOC(=O)Cc1c(C(=O)OCC)sc(N)c1C#N,288.15,ethanol,CCO,0.006369,0.11037603408304411,-0.9571252146084303,Ethyl 5-amino-4-cyano-3-(2-ethoxy-2-oxoethyl)-2-thiophenecarboxylate,58168-20-0,2741370,No,10.1016/j.jct.2015.11.025
CCOC(=O)Cc1c(C(=O)OCC)sc(N)c1C#N,293.15,ethanol,CCO,0.007978,0.13782994439946,-0.8606564190417959,Ethyl 5-amino-4-cyano-3-(2-ethoxy-2-oxoethyl)-2-thiophenecarboxylate,58168-20-0,2741370,No,10.1016/j.jct.2015.11.025
CCOC(=O)Cc1c(C(=O)OCC)sc(N)c1C#N,298.15,ethanol,CCO,0.009979,0.17184674716156562,-0.7648586840862711,Ethyl 5-amino-4-cyano-3-(2-ethoxy-2-oxoethyl)-2-thiophenecarboxylate,58168-20-0,2741370,No,10.1016/j.jct.2015.11.025
CCOC(=O)Cc1c(C(=O)OCC)sc(N)c1C#N,303.15,ethanol,CCO,0.01231,0.2112632875498006,-0.6751759662690334,Ethyl 5-amino-4-cyano-3-(2-ethoxy-2-oxoethyl)-2-thiophenecarboxylate,58168-20-0,2741370,No,10.1016/j.jct.2015.11.025
CCOC(=O)Cc1c(C(=O)OCC)sc(N)c1C#N,308.15,ethanol,CCO,0.01501,0.25681809031158687,-0.5903743877457693,Ethyl 5-amino-4-cyano-3-(2-ethoxy-2-oxoethyl)-2-thiophenecarboxylate,58168-20-0,2741370,No,10.1016/j.jct.2015.11.025
CCOC(=O)Cc1c(C(=O)OCC)sc(N)c1C#N,313.15,ethanol,CCO,0.01858,0.3173168030206907,-0.49850692989785744,Ethyl 5-amino-4-cyano-3-(2-ethoxy-2-oxoethyl)-2-thiophenecarboxylate,58168-20-0,2741370,No,10.1016/j.jct.2015.11.025
CCOC(=O)Cc1c(C(=O)OCC)sc(N)c1C#N,318.15,ethanol,CCO,0.02266,0.3863391329374768,-0.4130312992120508,Ethyl 5-amino-4-cyano-3-(2-ethoxy-2-oxoethyl)-2-thiophenecarboxylate,58168-20-0,2741370,No,10.1016/j.jct.2015.11.025
Nc1ccc(N2CCOCC2=O)cc1,278.15,ethanol,CCO,0.001267,0.02210220294984967,-1.6555644375690546,4-(4-aminophenyl)-3-morpholinone,438056-69-0,11194854,No,10.1016/j.jct.2016.01.022
Nc1ccc(N2CCOCC2=O)cc1,283.15,ethanol,CCO,0.001623,0.028144939042008443,-1.5505996876237125,4-(4-aminophenyl)-3-morpholinone,438056-69-0,11194854,No,10.1016/j.jct.2016.01.022
Nc1ccc(N2CCOCC2=O)cc1,288.15,ethanol,CCO,0.002078,0.03585730250545136,-1.4454223849094117,4-(4-aminophenyl)-3-morpholinone,438056-69-0,11194854,No,10.1016/j.jct.2016.01.022
Nc1ccc(N2CCOCC2=O)cc1,293.15,ethanol,CCO,0.002595,0.04458991800473189,-1.3507633262627547,4-(4-aminophenyl)-3-morpholinone,438056-69-0,11194854,No,10.1016/j.jct.2016.01.022
Nc1ccc(N2CCOCC2=O)cc1,298.15,ethanol,CCO,0.003212,0.054937821719469634,-1.2601285643178748,4-(4-aminophenyl)-3-morpholinone,438056-69-0,11194854,No,10.1016/j.jct.2016.01.022
Nc1ccc(N2CCOCC2=O)cc1,303.15,ethanol,CCO,0.003927,0.06682767790096318,-1.1750436292895783,4-(4-aminophenyl)-3-morpholinone,438056-69-0,11194854,No,10.1016/j.jct.2016.01.022
Nc1ccc(N2CCOCC2=O)cc1,308.15,ethanol,CCO,0.004749,0.08041670760097738,-1.094653711635968,4-(4-aminophenyl)-3-morpholinone,438056-69-0,11194854,No,10.1016/j.jct.2016.01.022
Nc1ccc(N2CCOCC2=O)cc1,313.15,ethanol,CCO,0.005671,0.095594257836483,-1.0195681941760621,4-(4-aminophenyl)-3-morpholinone,438056-69-0,11194854,No,10.1016/j.jct.2016.01.022
Nc1ccc(N2CCOCC2=O)cc1,318.15,ethanol,CCO,0.006716,0.11266569928170794,-0.9482082834220651,4-(4-aminophenyl)-3-morpholinone,438056-69-0,11194854,No,10.1016/j.jct.2016.01.022
Nc1ccc(N2CCOCC2=O)cc1,323.15,ethanol,CCO,0.007921,0.13227060285321873,-0.8785366670540781,4-(4-aminophenyl)-3-morpholinone,438056-69-0,11194854,No,10.1016/j.jct.2016.01.022
Nc1ccc(N2CCOCC2=O)cc1,328.15,ethanol,CCO,0.009281,0.15425822641783013,-0.8117516662405616,4-(4-aminophenyl)-3-morpholinone,438056-69-0,11194854,No,10.1016/j.jct.2016.01.022
Nc1ccc(N2CCOCC2=O)cc1,333.15,ethanol,CCO,0.010687,0.17689476794468537,-0.7522850121233763,4-(4-aminophenyl)-3-morpholinone,438056-69-0,11194854,No,10.1016/j.jct.2016.01.022
CC(=O)O[C@H]1CC[C@@]2(C)C(=CC[C@@H]3[C@@H]2CC[C@]2(C)C(=O)CC[C@@H]32)C1,273.15,ethanol,CCO,0.001853,0.03251973192571646,-1.4878530431413748,Dehydroepiandrosterone acetate,853-23-6,14709,No,10.1016/j.jct.2016.01.023
CC(=O)O[C@H]1CC[C@@]2(C)C(=CC[C@@H]3[C@@H]2CC[C@]2(C)C(=O)CC[C@@H]32)C1,278.15,ethanol,CCO,0.002341,0.04088157664610239,-1.3884723634726996,Dehydroepiandrosterone acetate,853-23-6,14709,No,10.1016/j.jct.2016.01.023
CC(=O)O[C@H]1CC[C@@]2(C)C(=CC[C@@H]3[C@@H]2CC[C@]2(C)C(=O)CC[C@@H]32)C1,283.15,ethanol,CCO,0.002919,0.05068506577202142,-1.2951199856021456,Dehydroepiandrosterone acetate,853-23-6,14709,No,10.1016/j.jct.2016.01.023
CC(=O)O[C@H]1CC[C@@]2(C)C(=CC[C@@H]3[C@@H]2CC[C@]2(C)C(=O)CC[C@@H]32)C1,288.15,ethanol,CCO,0.003638,0.06287445129143744,-1.2015257920297056,Dehydroepiandrosterone acetate,853-23-6,14709,No,10.1016/j.jct.2016.01.023
CC(=O)O[C@H]1CC[C@@]2(C)C(=CC[C@@H]3[C@@H]2CC[C@]2(C)C(=O)CC[C@@H]32)C1,293.15,ethanol,CCO,0.00456,0.07850920996810727,-1.10507939288906,Dehydroepiandrosterone acetate,853-23-6,14709,No,10.1016/j.jct.2016.01.023
CC(=O)O[C@H]1CC[C@@]2(C)C(=CC[C@@H]3[C@@H]2CC[C@]2(C)C(=O)CC[C@@H]32)C1,298.15,ethanol,CCO,0.005661,0.09706382047005961,-1.012942618683095,Dehydroepiandrosterone acetate,853-23-6,14709,No,10.1016/j.jct.2016.01.023
CC(=O)O[C@H]1CC[C@@]2(C)C(=CC[C@@H]3[C@@H]2CC[C@]2(C)C(=O)CC[C@@H]32)C1,303.15,ethanol,CCO,0.006951,0.11864877198227908,-0.9257367523819967,Dehydroepiandrosterone acetate,853-23-6,14709,No,10.1016/j.jct.2016.01.023
CC(=O)O[C@H]1CC[C@@]2(C)C(=CC[C@@H]3[C@@H]2CC[C@]2(C)C(=O)CC[C@@H]32)C1,308.15,ethanol,CCO,0.008491,0.14432412115866766,-0.8406610783961298,Dehydroepiandrosterone acetate,853-23-6,14709,No,10.1016/j.jct.2016.01.023
CC(=O)O[C@H]1CC[C@@]2(C)C(=CC[C@@H]3[C@@H]2CC[C@]2(C)C(=O)CC[C@@H]32)C1,313.15,ethanol,CCO,0.01021,0.1728959995949376,-0.7622150551583675,Dehydroepiandrosterone acetate,853-23-6,14709,No,10.1016/j.jct.2016.01.023
CC(=O)O[C@H]1CC[C@@]2(C)C(=CC[C@@H]3[C@@H]2CC[C@]2(C)C(=O)CC[C@@H]32)C1,318.15,ethanol,CCO,0.0125,0.21092466968232296,-0.6758726223452401,Dehydroepiandrosterone acetate,853-23-6,14709,No,10.1016/j.jct.2016.01.023
O=C1c2cccc(O)c2C(=O)c2c(O)cc(CO)cc21,278.15,ethanol,CCO,1.723e-05,0.0003001933780727182,-3.522598892033445,Aloe-emodin,481-72-1,10207,No,10.1016/j.jct.2016.02.020
O=C1c2cccc(O)c2C(=O)c2c(O)cc(CO)cc21,283.15,ethanol,CCO,2.11e-05,0.0003653153987928706,-3.4373320209996314,Aloe-emodin,481-72-1,10207,No,10.1016/j.jct.2016.02.020
O=C1c2cccc(O)c2C(=O)c2c(O)cc(CO)cc21,288.15,ethanol,CCO,2.449e-05,0.00042172377957714957,-3.374971909898177,Aloe-emodin,481-72-1,10207,No,10.1016/j.jct.2016.02.020
O=C1c2cccc(O)c2C(=O)c2c(O)cc(CO)cc21,293.15,ethanol,CCO,3.086e-05,0.000528908049728367,-3.276619823175746,Aloe-emodin,481-72-1,10207,No,10.1016/j.jct.2016.02.020
O=C1c2cccc(O)c2C(=O)c2c(O)cc(CO)cc21,298.15,ethanol,CCO,3.744e-05,0.0006383381497439115,-3.194949199549258,Aloe-emodin,481-72-1,10207,No,10.1016/j.jct.2016.02.020
O=C1c2cccc(O)c2C(=O)c2c(O)cc(CO)cc21,303.15,ethanol,CCO,4.355e-05,0.0007382334350950768,-3.131806289202048,Aloe-emodin,481-72-1,10207,No,10.1016/j.jct.2016.02.020
O=C1c2cccc(O)c2C(=O)c2c(O)cc(CO)cc21,308.15,ethanol,CCO,5.046e-05,0.0008504443547384267,-3.0703540973608097,Aloe-emodin,481-72-1,10207,No,10.1016/j.jct.2016.02.020