SMILES_Solute,Temperature_K,Solvent,SMILES_Solvent,Solubility(mole_fraction),Solubility(mol/L),LogS(mol/L),Compound_Name,CAS,PubChem_CID,FDA_Approved,Source
COC(=O)[C@H](N)c1ccccc1.Cl,283.15,ethanol,CCO,0.015,0.26365219330571565,-0.5789686114495003,D-phenylglycine methyl ester hydrochloride,19883-41-1,12247453,No,10.1016/j.fluid.2016.02.020
COC(=O)[C@H](N)c1ccccc1.Cl,293.15,ethanol,CCO,0.022,0.3855268932646198,-0.41394532140278434,D-phenylglycine methyl ester hydrochloride,19883-41-1,12247453,No,10.1016/j.fluid.2016.02.020
COC(=O)[C@H](N)c1ccccc1.Cl,303.15,ethanol,CCO,0.028,0.4882906450844399,-0.31132159606632626,D-phenylglycine methyl ester hydrochloride,19883-41-1,12247453,No,10.1016/j.fluid.2016.02.020
COC(=O)[C@H](N)c1ccccc1.Cl,313.15,ethanol,CCO,0.033,0.5719917044535711,-0.24261026969677166,D-phenylglycine methyl ester hydrochloride,19883-41-1,12247453,No,10.1016/j.fluid.2016.02.020
COC(=O)[C@H](N)c1ccccc1.Cl,323.15,ethanol,CCO,0.037,0.6365096808261804,-0.19619498667266996,D-phenylglycine methyl ester hydrochloride,19883-41-1,12247453,No,10.1016/j.fluid.2016.02.020
COC(=O)[C@H](N)c1ccccc1.Cl,333.15,ethanol,CCO,0.042,0.717921030771171,-0.14392332426254112,D-phenylglycine methyl ester hydrochloride,19883-41-1,12247453,No,10.1016/j.fluid.2016.02.020
CCOc1ccccc1C(N)=O,288.15,ethanol,CCO,0.01098,0.19117272693572857,-0.7185740649164034,Ethenzamide,938-73-8,3282,No,10.1016/j.fluid.2016.08.019
CCOc1ccccc1C(N)=O,293.15,ethanol,CCO,0.01371,0.23823396424578527,-0.6229963224795547,Ethenzamide,938-73-8,3282,No,10.1016/j.fluid.2016.08.019
CCOc1ccccc1C(N)=O,298.15,ethanol,CCO,0.01707,0.29608038093010497,-0.528590369159445,Ethenzamide,938-73-8,3282,No,10.1016/j.fluid.2016.08.019
CCOc1ccccc1C(N)=O,303.15,ethanol,CCO,0.02114,0.36607581554222973,-0.4364289614312007,Ethenzamide,938-73-8,3282,No,10.1016/j.fluid.2016.08.019
CCOc1ccccc1C(N)=O,308.15,ethanol,CCO,0.02645,0.45787207432905913,-0.3392558433354355,Ethenzamide,938-73-8,3282,No,10.1016/j.fluid.2016.08.019
CCOc1ccccc1C(N)=O,313.15,ethanol,CCO,0.03266,0.5658994846920941,-0.24726070153292065,Ethenzamide,938-73-8,3282,No,10.1016/j.fluid.2016.08.019
CCOc1ccccc1C(N)=O,318.15,ethanol,CCO,0.04017,0.6973679448547909,-0.15653801923797492,Ethenzamide,938-73-8,3282,No,10.1016/j.fluid.2016.08.019
CCOc1ccccc1C(N)=O,323.15,ethanol,CCO,0.04858,0.845891790866171,-0.07268518972153866,Ethenzamide,938-73-8,3282,No,10.1016/j.fluid.2016.08.019
CC(=O)NC[C@H]1CN(c2ccc(N3CCOCC3)c(F)c2)C(=O)O1,283.15,ethanol,CCO,0.0007567,0.013110789631468698,-1.8823711510053862,Linezolid,165800-03-3,441401,Yes,10.1016/j.fluid.2016.10.021
CC(=O)NC[C@H]1CN(c2ccc(N3CCOCC3)c(F)c2)C(=O)O1,288.13,ethanol,CCO,0.0009852,0.01699480743752916,-1.7696837518983555,Linezolid,165800-03-3,441401,Yes,10.1016/j.fluid.2016.10.021
CC(=O)NC[C@H]1CN(c2ccc(N3CCOCC3)c(F)c2)C(=O)O1,293.15,ethanol,CCO,0.001279,0.021948114400261974,-1.6586027847948475,Linezolid,165800-03-3,441401,Yes,10.1016/j.fluid.2016.10.021
CC(=O)NC[C@H]1CN(c2ccc(N3CCOCC3)c(F)c2)C(=O)O1,298.15,ethanol,CCO,0.001657,0.028297067537182093,-1.548258568659734,Linezolid,165800-03-3,441401,Yes,10.1016/j.fluid.2016.10.021
CC(=O)NC[C@H]1CN(c2ccc(N3CCOCC3)c(F)c2)C(=O)O1,303.15,ethanol,CCO,0.002141,0.0363692316511889,-1.4392658739019455,Linezolid,165800-03-3,441401,Yes,10.1016/j.fluid.2016.10.021
CC(=O)NC[C@H]1CN(c2ccc(N3CCOCC3)c(F)c2)C(=O)O1,308.15,ethanol,CCO,0.002759,0.046626016856123054,-1.3313716836510832,Linezolid,165800-03-3,441401,Yes,10.1016/j.fluid.2016.10.021
CC(=O)NC[C@H]1CN(c2ccc(N3CCOCC3)c(F)c2)C(=O)O1,313.15,ethanol,CCO,0.003546,0.05964633191480672,-1.2244162590873702,Linezolid,165800-03-3,441401,Yes,10.1016/j.fluid.2016.10.021
CC(=O)NC[C@H]1CN(c2ccc(N3CCOCC3)c(F)c2)C(=O)O1,318.15,ethanol,CCO,0.004546,0.07609615343520781,-1.1186372957141146,Linezolid,165800-03-3,441401,Yes,10.1016/j.fluid.2016.10.021
Nc1ccn([C@@H]2O[C@H](CO)[C@@H](O)[C@@H]2O)c(=O)n1,293.15,ethanol,CCO,0.00028000000000000003,0.004800102412838481,-2.318749496612715,Cytarabine,147-94-4,6253,Yes,10.1016/j.fluid.2017.04.021
Nc1ccn([C@@H]2O[C@H](CO)[C@@H](O)[C@@H]2O)c(=O)n1,298.15,ethanol,CCO,0.0003,0.005116232388655578,-2.291049737293728,Cytarabine,147-94-4,6253,Yes,10.1016/j.fluid.2017.04.021
Nc1ccn([C@@H]2O[C@H](CO)[C@@H](O)[C@@H]2O)c(=O)n1,303.15,ethanol,CCO,0.00035999999999999997,0.006104435544222606,-2.21435448755246,Cytarabine,147-94-4,6253,Yes,10.1016/j.fluid.2017.04.021
Nc1ccn([C@@H]2O[C@H](CO)[C@@H](O)[C@@H]2O)c(=O)n1,308.15,ethanol,CCO,0.00051,0.008599406209876235,-2.065531535811929,Cytarabine,147-94-4,6253,Yes,10.1016/j.fluid.2017.04.021
Nc1ccn([C@@H]2O[C@H](CO)[C@@H](O)[C@@H]2O)c(=O)n1,313.15,ethanol,CCO,0.00074,0.01241239195407287,-1.906144518875549,Cytarabine,147-94-4,6253,Yes,10.1016/j.fluid.2017.04.021
Nc1ccn([C@@H]2O[C@H](CO)[C@@H](O)[C@@H]2O)c(=O)n1,318.15,ethanol,CCO,0.00126,0.02102192925103473,-1.67732742985722,Cytarabine,147-94-4,6253,Yes,10.1016/j.fluid.2017.04.021
Nc1ccn([C@@H]2O[C@H](CO)[C@@H](O)[C@@H]2O)c(=O)n1,323.15,ethanol,CCO,0.00244,0.040521020675065876,-1.3923196238259201,Cytarabine,147-94-4,6253,Yes,10.1016/j.fluid.2017.04.021
Nc1ccn([C@@H]2O[C@H](CO)[C@@H](O)[C@@H]2O)c(=O)n1,328.15,ethanol,CCO,0.00449,0.07426851959380407,-1.129195232859004,Cytarabine,147-94-4,6253,Yes,10.1016/j.fluid.2017.04.021
Nc1ccn([C@@H]2O[C@H](CO)[C@@H](O)[C@@H]2O)c(=O)n1,333.15,ethanol,CCO,0.00967,0.1598966751371433,-0.7961605668016356,Cytarabine,147-94-4,6253,Yes,10.1016/j.fluid.2017.04.021
CCCCCOC(=O)Nc1nc(=O)n([C@@H]2O[C@H](C)[C@@H](O)[C@H]2O)cc1F,278.25,ethanol,CCO,0.0099,0.17418758457712363,-0.7589828030700312,Capecitabine,154361-50-9,60953,Yes,10.1016/j.fluid.2017.12.024
CCCCCOC(=O)Nc1nc(=O)n([C@@H]2O[C@H](C)[C@@H](O)[C@H]2O)cc1F,282.86,ethanol,CCO,0.0123,0.21585180612306212,-0.6658443130674873,Capecitabine,154361-50-9,60953,Yes,10.1016/j.fluid.2017.12.024
CCCCCOC(=O)Nc1nc(=O)n([C@@H]2O[C@H](C)[C@@H](O)[C@H]2O)cc1F,287.85,ethanol,CCO,0.017,0.2981212917129768,-0.5256070057075769,Capecitabine,154361-50-9,60953,Yes,10.1016/j.fluid.2017.12.024
CCCCCOC(=O)Nc1nc(=O)n([C@@H]2O[C@H](C)[C@@H](O)[C@H]2O)cc1F,292.84,ethanol,CCO,0.0247,0.4341753752143487,-0.3623348117240536,Capecitabine,154361-50-9,60953,Yes,10.1016/j.fluid.2017.12.024
CCCCCOC(=O)Nc1nc(=O)n([C@@H]2O[C@H](C)[C@@H](O)[C@H]2O)cc1F,297.75,ethanol,CCO,0.0353,0.6239117559052177,-0.2048768312046011,Capecitabine,154361-50-9,60953,Yes,10.1016/j.fluid.2017.12.024
CCCCCOC(=O)Nc1nc(=O)n([C@@H]2O[C@H](C)[C@@H](O)[C@H]2O)cc1F,302.55,ethanol,CCO,0.048,0.8551056762066296,-0.06798021070176463,Capecitabine,154361-50-9,60953,Yes,10.1016/j.fluid.2017.12.024
CCCCCOC(=O)Nc1nc(=O)n([C@@H]2O[C@H](C)[C@@H](O)[C@H]2O)cc1F,307.25,ethanol,CCO,0.0676,1.2231254565236467,0.08747100509970632,Capecitabine,154361-50-9,60953,Yes,10.1016/j.fluid.2017.12.024
CCCCCOC(=O)Nc1nc(=O)n([C@@H]2O[C@H](C)[C@@H](O)[C@H]2O)cc1F,312.14,ethanol,CCO,0.0933,1.72643515115157,0.2371502698989298,Capecitabine,154361-50-9,60953,Yes,10.1016/j.fluid.2017.12.024
CCCCCOC(=O)Nc1nc(=O)n([C@@H]2O[C@H](C)[C@@H](O)[C@H]2O)cc1F,317.35,ethanol,CCO,0.1271,2.428553493600907,0.385347674092697,Capecitabine,154361-50-9,60953,Yes,10.1016/j.fluid.2017.12.024
CCCCCOC(=O)Nc1nc(=O)n([C@@H]2O[C@H](C)[C@@H](O)[C@H]2O)cc1F,322.13,ethanol,CCO,0.166,3.301728610921786,0.5187413730991212,Capecitabine,154361-50-9,60953,Yes,10.1016/j.fluid.2017.12.024
Cc1cc(C)c(C(=O)P(=O)(c2ccccc2)c2ccccc2)c(C)c1,273.15,ethanol,CCO,0.07606,1.442044276159864,0.15897859505518988,"(2,4,6-trimethylbenzoyl) diphenylphosphine oxide",75980-60-8,166480,No,10.1016/j.fluid.2018.01.015
Cc1cc(C)c(C(=O)P(=O)(c2ccccc2)c2ccccc2)c(C)c1,278.15,ethanol,CCO,0.08948,1.7121619181829475,0.23354483326648465,"(2,4,6-trimethylbenzoyl) diphenylphosphine oxide",75980-60-8,166480,No,10.1016/j.fluid.2018.01.015
Cc1cc(C)c(C(=O)P(=O)(c2ccccc2)c2ccccc2)c(C)c1,283.15,ethanol,CCO,0.1071,2.0766485724042645,0.31736300785962734,"(2,4,6-trimethylbenzoyl) diphenylphosphine oxide",75980-60-8,166480,No,10.1016/j.fluid.2018.01.015
Cc1cc(C)c(C(=O)P(=O)(c2ccccc2)c2ccccc2)c(C)c1,288.15,ethanol,CCO,0.1298,2.568527870311188,0.4096842824826607,"(2,4,6-trimethylbenzoyl) diphenylphosphine oxide",75980-60-8,166480,No,10.1016/j.fluid.2018.01.015
Cc1cc(C)c(C(=O)P(=O)(c2ccccc2)c2ccccc2)c(C)c1,293.15,ethanol,CCO,0.1542,3.1245504798412194,0.4947875454666674,"(2,4,6-trimethylbenzoyl) diphenylphosphine oxide",75980-60-8,166480,No,10.1016/j.fluid.2018.01.015
Cc1cc(C)c(C(=O)P(=O)(c2ccccc2)c2ccccc2)c(C)c1,298.15,ethanol,CCO,0.1843,3.852064700014116,0.5856935730067886,"(2,4,6-trimethylbenzoyl) diphenylphosphine oxide",75980-60-8,166480,No,10.1016/j.fluid.2018.01.015
Cc1cc(C)c(C(=O)P(=O)(c2ccccc2)c2ccccc2)c(C)c1,303.15,ethanol,CCO,0.2178,4.719833748648868,0.6739267013213732,"(2,4,6-trimethylbenzoyl) diphenylphosphine oxide",75980-60-8,166480,No,10.1016/j.fluid.2018.01.015
Cc1cc(C)c(C(=O)P(=O)(c2ccccc2)c2ccccc2)c(C)c1,308.15,ethanol,CCO,0.2658,6.101229168410875,0.7854173378439013,"(2,4,6-trimethylbenzoyl) diphenylphosphine oxide",75980-60-8,166480,No,10.1016/j.fluid.2018.01.015
CC1(C)CCC2=C(O1)c1ccccc1C(=O)C2=O,298.15,ethanol,CCO,0.00499,0.0855011193170773,-1.0680281997741872,-lapachone,4707-32-8,3885,No,10.1016/j.fluid.2018.05.005
CC1(C)CCC2=C(O1)c1ccccc1C(=O)C2=O,303.15,ethanol,CCO,0.00595,0.10146012045892165,-0.9937046264005,-lapachone,4707-32-8,3885,No,10.1016/j.fluid.2018.05.005
CC1(C)CCC2=C(O1)c1ccccc1C(=O)C2=O,308.15,ethanol,CCO,0.00664,0.11265180446081406,-0.9482618473391924,-lapachone,4707-32-8,3885,No,10.1016/j.fluid.2018.05.005
CC1(C)CCC2=C(O1)c1ccccc1C(=O)C2=O,313.15,ethanol,CCO,0.00909,0.15375595196389796,-0.8131680634872104,-lapachone,4707-32-8,3885,No,10.1016/j.fluid.2018.05.005
CC1(C)CCC2=C(O1)c1ccccc1C(=O)C2=O,318.15,ethanol,CCO,0.0134,0.2263175099591598,-0.6452818438161135,-lapachone,4707-32-8,3885,No,10.1016/j.fluid.2018.05.005
Cn1cc([N+](=O)[O-])cn1,283.15,ethanol,CCO,0.004834,0.08409835021850505,-1.0752125237981325,1-methyl-4-nitropyrazole,3994-50-1,19895,No,10.1016/j.fluid.2018.05.023
Cn1cc([N+](=O)[O-])cn1,288.15,ethanol,CCO,0.005109,0.08842785073666447,-1.0534109305039232,1-methyl-4-nitropyrazole,3994-50-1,19895,No,10.1016/j.fluid.2018.05.023
Cn1cc([N+](=O)[O-])cn1,293.15,ethanol,CCO,0.005458,0.0940548630883111,-1.0266187444217685,1-methyl-4-nitropyrazole,3994-50-1,19895,No,10.1016/j.fluid.2018.05.023
Cn1cc([N+](=O)[O-])cn1,298.15,ethanol,CCO,0.005808,0.09959901504604612,-1.0017449563773273,1-methyl-4-nitropyrazole,3994-50-1,19895,No,10.1016/j.fluid.2018.05.023
Cn1cc([N+](=O)[O-])cn1,303.15,ethanol,CCO,0.006334,0.10804987445759394,-0.9663757333842186,1-methyl-4-nitropyrazole,3994-50-1,19895,No,10.1016/j.fluid.2018.05.023
Cn1cc([N+](=O)[O-])cn1,308.15,ethanol,CCO,0.006945,0.11786251094392788,-0.9286243109290058,1-methyl-4-nitropyrazole,3994-50-1,19895,No,10.1016/j.fluid.2018.05.023
Cn1cc([N+](=O)[O-])cn1,313.15,ethanol,CCO,0.007358,0.12424227672194386,-0.9057305988223385,1-methyl-4-nitropyrazole,3994-50-1,19895,No,10.1016/j.fluid.2018.05.023
Cn1cc([N+](=O)[O-])cn1,318.15,ethanol,CCO,0.007847,0.13178909377563527,-0.8801205283538449,1-methyl-4-nitropyrazole,3994-50-1,19895,No,10.1016/j.fluid.2018.05.023
Cn1cc([N+](=O)[O-])cn1,323.15,ethanol,CCO,0.008231,0.13749016994322757,-0.8617283512302534,1-methyl-4-nitropyrazole,3994-50-1,19895,No,10.1016/j.fluid.2018.05.023
Nc1nc(N)nc(NC2CC2)n1,283.15,ethanol,CCO,0.0009163,0.015878598703667958,-1.7991878269792816,Cyromazine,66215-27-8,47866,No,10.1016/j.fluid.2018.07.024
Nc1nc(N)nc(NC2CC2)n1,288.15,ethanol,CCO,0.001067,0.0183931760626084,-1.7353432719925892,Cyromazine,66215-27-8,47866,No,10.1016/j.fluid.2018.07.024
Nc1nc(N)nc(NC2CC2)n1,293.15,ethanol,CCO,0.001267,0.021741928712015177,-1.6627019325665817,Cyromazine,66215-27-8,47866,No,10.1016/j.fluid.2018.07.024
Nc1nc(N)nc(NC2CC2)n1,298.15,ethanol,CCO,0.001487,0.025389605044909336,-1.5953440548628113,Cyromazine,66215-27-8,47866,No,10.1016/j.fluid.2018.07.024
Nc1nc(N)nc(NC2CC2)n1,303.15,ethanol,CCO,0.001725,0.029290416132581574,-1.5332744581989024,Cyromazine,66215-27-8,47866,No,10.1016/j.fluid.2018.07.024
Nc1nc(N)nc(NC2CC2)n1,308.15,ethanol,CCO,0.002052,0.03465342665911092,-1.4602538142826946,Cyromazine,66215-27-8,47866,No,10.1016/j.fluid.2018.07.024
Nc1nc(N)nc(NC2CC2)n1,313.15,ethanol,CCO,0.00253,0.04251311651395321,-1.3714770569900305,Cyromazine,66215-27-8,47866,No,10.1016/j.fluid.2018.07.024
Nc1nc(N)nc(NC2CC2)n1,318.15,ethanol,CCO,0.002994,0.05003898514279866,-1.300691506959271,Cyromazine,66215-27-8,47866,No,10.1016/j.fluid.2018.07.024
Nc1nc(N)nc(NC2CC2)n1,323.15,ethanol,CCO,0.003553,0.059070490881787556,-1.228629420095905,Cyromazine,66215-27-8,47866,No,10.1016/j.fluid.2018.07.024
O=C1NC(=O)C2C3C=CC(C3)C12,278.15,ethanol,CCO,0.004407,0.07712045153040335,-1.1128304363590051,"5-norbornene-2,3-dicarboximide",3647-74-3,97723,No,10.1016/j.fluid.2019.112301
O=C1NC(=O)C2C3C=CC(C3)C12,283.15,ethanol,CCO,0.005122,0.08913455627056432,-1.0499538931783532,"5-norbornene-2,3-dicarboximide",3647-74-3,97723,No,10.1016/j.fluid.2019.112301
O=C1NC(=O)C2C3C=CC(C3)C12,288.15,ethanol,CCO,0.006419,0.11124814206791579,-0.9537072333482868,"5-norbornene-2,3-dicarboximide",3647-74-3,97723,No,10.1016/j.fluid.2019.112301
O=C1NC(=O)C2C3C=CC(C3)C12,293.15,ethanol,CCO,0.007887,0.1362453073673948,-0.8656784469929149,"5-norbornene-2,3-dicarboximide",3647-74-3,97723,No,10.1016/j.fluid.2019.112301
O=C1NC(=O)C2C3C=CC(C3)C12,298.15,ethanol,CCO,0.009488,0.1633103218661765,-0.7869863652458353,"5-norbornene-2,3-dicarboximide",3647-74-3,97723,No,10.1016/j.fluid.2019.112301
O=C1NC(=O)C2C3C=CC(C3)C12,303.15,ethanol,CCO,0.01152,0.19754735990374508,-0.7043287700164343,"5-norbornene-2,3-dicarboximide",3647-74-3,97723,No,10.1016/j.fluid.2019.112301
O=C1NC(=O)C2C3C=CC(C3)C12,308.15,ethanol,CCO,0.013807,0.2359468320651786,-0.6271858493269573,"5-norbornene-2,3-dicarboximide",3647-74-3,97723,No,10.1016/j.fluid.2019.112301
O=C1NC(=O)C2C3C=CC(C3)C12,313.15,ethanol,CCO,0.016471,0.28069524893123604,-0.5517649382042126,"5-norbornene-2,3-dicarboximide",3647-74-3,97723,No,10.1016/j.fluid.2019.112301
O=C1NC(=O)C2C3C=CC(C3)C12,318.15,ethanol,CCO,0.019521,0.33175557831694663,-0.47918176594084294,"5-norbornene-2,3-dicarboximide",3647-74-3,97723,No,10.1016/j.fluid.2019.112301
O=C1NC(=O)C2C3C=CC(C3)C12,323.15,ethanol,CCO,0.023276,0.39478992919371014,-0.40363393440003115,"5-norbornene-2,3-dicarboximide",3647-74-3,97723,No,10.1016/j.fluid.2019.112301
O.O=c1c(O)c(-c2ccc(O)cc2)oc2cc(O)cc(O)c12,283.15,ethanol,CCO,0.006681,0.1164472104076236,-0.9338709108999061,Kaempferol monohydrate,1897498-12-2,86278401,No,10.1016/j.fluid.2021.113027
O.O=c1c(O)c(-c2ccc(O)cc2)oc2cc(O)cc(O)c12,288.15,ethanol,CCO,0.008124000000000001,0.14103964356896695,-0.8506587982429547,Kaempferol monohydrate,1897498-12-2,86278401,No,10.1016/j.fluid.2021.113027
O.O=c1c(O)c(-c2ccc(O)cc2)oc2cc(O)cc(O)c12,293.15,ethanol,CCO,0.009928000000000001,0.17185645242383935,-0.7648341574490032,Kaempferol monohydrate,1897498-12-2,86278401,No,10.1016/j.fluid.2021.113027
O.O=c1c(O)c(-c2ccc(O)cc2)oc2cc(O)cc(O)c12,298.15,ethanol,CCO,0.012125,0.20925625683794397,-0.6793215475781025,Kaempferol monohydrate,1897498-12-2,86278401,No,10.1016/j.fluid.2021.113027
O.O=c1c(O)c(-c2ccc(O)cc2)oc2cc(O)cc(O)c12,303.15,ethanol,CCO,0.014625,0.2515828152877931,-0.5993190272989933,Kaempferol monohydrate,1897498-12-2,86278401,No,10.1016/j.fluid.2021.113027
O.O=c1c(O)c(-c2ccc(O)cc2)oc2cc(O)cc(O)c12,308.15,ethanol,CCO,0.017796,0.3053496594896361,-0.5152025599708977,Kaempferol monohydrate,1897498-12-2,86278401,No,10.1016/j.fluid.2021.113027
O.O=c1c(O)c(-c2ccc(O)cc2)oc2cc(O)cc(O)c12,313.15,ethanol,CCO,0.021158,0.36229661935396734,-0.44093571841582807,Kaempferol monohydrate,1897498-12-2,86278401,No,10.1016/j.fluid.2021.113027
O.O=c1c(O)c(-c2ccc(O)cc2)oc2cc(O)cc(O)c12,318.15,ethanol,CCO,0.024986,0.4270122684781133,-0.36955964709253114,Kaempferol monohydrate,1897498-12-2,86278401,No,10.1016/j.fluid.2021.113027
O.O=c1c(O)c(-c2ccc(O)cc2)oc2cc(O)cc(O)c12,323.15,ethanol,CCO,0.029484000000000003,0.5032841801343342,-0.2981867206824211,Kaempferol monohydrate,1897498-12-2,86278401,No,10.1016/j.fluid.2021.113027
Oc1ccc(/C=C/c2cc(O)cc(O)c2)cc1,278.2,ethanol,CCO,0.011699999999999999,0.20624421332739076,-0.6856182277731317,Trans-resveratrol,501-36-0,445154,No,10.1016/j.jct.2007.10.006
Oc1ccc(/C=C/c2cc(O)cc(O)c2)cc1,288.2,ethanol,CCO,0.0139,0.24289811595546992,-0.614575853796419,Trans-resveratrol,501-36-0,445154,No,10.1016/j.jct.2007.10.006
Oc1ccc(/C=C/c2cc(O)cc(O)c2)cc1,298.2,ethanol,CCO,0.0169,0.2929626714108342,-0.5331877128645574,Trans-resveratrol,501-36-0,445154,No,10.1016/j.jct.2007.10.006
Oc1ccc(/C=C/c2cc(O)cc(O)c2)cc1,308.2,ethanol,CCO,0.019799999999999998,0.3404183336567379,-0.4679870584830337,Trans-resveratrol,501-36-0,445154,No,10.1016/j.jct.2007.10.006
Oc1ccc(/C=C/c2cc(O)cc(O)c2)cc1,318.2,ethanol,CCO,0.0223,0.38005447189112546,-0.4201541529981187,Trans-resveratrol,501-36-0,445154,No,10.1016/j.jct.2007.10.006
C[C@@H]1O[C@@H](OC[C@H]2O[C@@H](Oc3cc(O)c4c(=O)cc(-c5ccccc5O)oc4c3)[C@H](O)[C@@H](O)[C@@H]2O)[C@H](O)[C@H](O)[C@H]1O,288.2,ethanol,CCO,6.39e-05,0.001101181521900812,-2.958141084786738,Apigenin 7-O-rhamnosylglucoside,,,No,10.1016/j.jct.2010.09.013
C[C@@H]1O[C@@H](OC[C@H]2O[C@@H](Oc3cc(O)c4c(=O)cc(-c5ccccc5O)oc4c3)[C@H](O)[C@@H](O)[C@@H]2O)[C@H](O)[C@H](O)[C@H]1O,298.2,ethanol,CCO,9.73e-05,0.0016583583346142616,-2.7803216221988225,Apigenin 7-O-rhamnosylglucoside,,,No,10.1016/j.jct.2010.09.013
C[C@@H]1O[C@@H](OC[C@H]2O[C@@H](Oc3cc(O)c4c(=O)cc(-c5ccccc5O)oc4c3)[C@H](O)[C@@H](O)[C@@H]2O)[C@H](O)[C@H](O)[C@H]1O,308.2,ethanol,CCO,0.0001466,0.0024709280070023443,-2.6071399080245086,Apigenin 7-O-rhamnosylglucoside,,,No,10.1016/j.jct.2010.09.013
C[C@@H]1O[C@@H](OC[C@H]2O[C@@H](Oc3cc(O)c4c(=O)cc(-c5ccccc5O)oc4c3)[C@H](O)[C@@H](O)[C@@H]2O)[C@H](O)[C@H](O)[C@H]1O,318.2,ethanol,CCO,0.0002548,0.004246749996849625,-2.3719433048639167,Apigenin 7-O-rhamnosylglucoside,,,No,10.1016/j.jct.2010.09.013
C[C@@H]1O[C@@H](OC[C@H]2O[C@@H](Oc3cc(O)c4c(=O)cc(-c5ccccc5O)oc4c3)[C@H](O)[C@@H](O)[C@@H]2O)[C@H](O)[C@H](O)[C@H]1O,328.2,ethanol,CCO,0.0004282,0.007056789056096387,-2.1513928644480487,Apigenin 7-O-rhamnosylglucoside,,,No,10.1016/j.jct.2010.09.013
O=c1cc(-c2ccc(O)cc2)oc2cc(O)cc(O)c12,288.2,ethanol,CCO,0.000244,0.0042055820644021375,-2.376173888126732,Apigenin,520-36-5,5280443,No,10.1016/j.jct.2010.09.013
O=c1cc(-c2ccc(O)cc2)oc2cc(O)cc(O)c12,298.2,ethanol,CCO,0.000295,0.005028904986608765,-2.298526569624912,Apigenin,520-36-5,5280443,No,10.1016/j.jct.2010.09.013
O=c1cc(-c2ccc(O)cc2)oc2cc(O)cc(O)c12,308.2,ethanol,CCO,0.000346,0.00583295787640583,-2.234111159882442,Apigenin,520-36-5,5280443,No,10.1016/j.jct.2010.09.013
O=c1cc(-c2ccc(O)cc2)oc2cc(O)cc(O)c12,318.2,ethanol,CCO,0.000397,0.006617737784307432,-2.179290444955622,Apigenin,520-36-5,5280443,No,10.1016/j.jct.2010.09.013
O=c1cc(-c2ccc(O)cc2)oc2cc(O)cc(O)c12,328.2,ethanol,CCO,0.000449,0.0073997296136295255,-2.130784149114166,Apigenin,520-36-5,5280443,No,10.1016/j.jct.2010.09.013
Cc1ccc([N+](=O)[O-])cc1S(=O)(=O)[O-].[Na+],294.3,ethanol,CCO,0.0018520000000000001,0.03175779890261607,-1.498149605664785,Sodium 4-nitrotoluene-2-sulfonate,5258-64-0,21329,No,10.1016/j.jct.2011.04.004
Cc1ccc([N+](=O)[O-])cc1S(=O)(=O)[O-].[Na+],298.4,ethanol,CCO,0.001963,0.03351199255066191,-1.4747997491855929,Sodium 4-nitrotoluene-2-sulfonate,5258-64-0,21329,No,10.1016/j.jct.2011.04.004
Cc1ccc([N+](=O)[O-])cc1S(=O)(=O)[O-].[Na+],302.84,ethanol,CCO,0.002045,0.034742172418424415,-1.4591430287261091,Sodium 4-nitrotoluene-2-sulfonate,5258-64-0,21329,No,10.1016/j.jct.2011.04.004
Cc1ccc([N+](=O)[O-])cc1S(=O)(=O)[O-].[Na+],306.75,ethanol,CCO,0.002178,0.036844736197978366,-1.433624548604413,Sodium 4-nitrotoluene-2-sulfonate,5258-64-0,21329,No,10.1016/j.jct.2011.04.004
Cc1ccc([N+](=O)[O-])cc1S(=O)(=O)[O-].[Na+],311.6,ethanol,CCO,0.00232,0.03903858022370968,-1.4085059853757538,Sodium 4-nitrotoluene-2-sulfonate,5258-64-0,21329,No,10.1016/j.jct.2011.04.004