SMILES_Solute,Temperature_K,Solvent,SMILES_Solvent,Solubility(mole_fraction),Solubility(mol/L),LogS(mol/L),Compound_Name,CAS,PubChem_CID,FDA_Approved,Source
CCN(CC)C(=S)SSC(=S)N(CC)CC,283.15,ethanol,CCO,0.00143,0.024793274174120045,-1.6056661169652164,Disulfiram,97-77-8,3117,Yes,10.1016/j.molliq.2024.126513
CCN(CC)C(=S)SSC(=S)N(CC)CC,288.15,ethanol,CCO,0.00192,0.03312566035316319,-1.4798354553984916,Disulfiram,97-77-8,3117,Yes,10.1016/j.molliq.2024.126513
CCN(CC)C(=S)SSC(=S)N(CC)CC,293.15,ethanol,CCO,0.00266,0.04570979269812443,-1.3399907483073614,Disulfiram,97-77-8,3117,Yes,10.1016/j.molliq.2024.126513
CCN(CC)C(=S)SSC(=S)N(CC)CC,298.15,ethanol,CCO,0.00339,0.05799267713951345,-1.2366268422764228,Disulfiram,97-77-8,3117,Yes,10.1016/j.molliq.2024.126513
CCN(CC)C(=S)SSC(=S)N(CC)CC,303.15,ethanol,CCO,0.00466,0.07935989721828263,-1.100398903323152,Disulfiram,97-77-8,3117,Yes,10.1016/j.molliq.2024.126513
CCN(CC)C(=S)SSC(=S)N(CC)CC,308.15,ethanol,CCO,0.0063,0.10684691838991124,-0.9712379989613653,Disulfiram,97-77-8,3117,Yes,10.1016/j.molliq.2024.126513
CCN(CC)C(=S)SSC(=S)N(CC)CC,313.15,ethanol,CCO,0.00911,0.15409735910698447,-0.8122048040790615,Disulfiram,97-77-8,3117,Yes,10.1016/j.molliq.2024.126513
CCN(CC)C(=S)SSC(=S)N(CC)CC,318.15,ethanol,CCO,0.01306,0.22049913743291374,-0.6565931051025307,Disulfiram,97-77-8,3117,Yes,10.1016/j.molliq.2024.126513
CN(CCOc1ccc(CC2SC(=O)NC2=O)cc1)c1ccccn1,283.15,ethanol,CCO,0.0002449,0.004241031682556472,-2.3725284831384856,Rosiglitazone,122320-73-4,77999,Yes,10.1016/j.molliq.2024.126543
CN(CCOc1ccc(CC2SC(=O)NC2=O)cc1)c1ccccn1,293.15,ethanol,CCO,0.000341,0.005846195727741532,-2.2331266487707224,Rosiglitazone,122320-73-4,77999,Yes,10.1016/j.molliq.2024.126543
CN(CCOc1ccc(CC2SC(=O)NC2=O)cc1)c1ccccn1,303.15,ethanol,CCO,0.0004578,0.007763566750669392,-2.109938708606136,Rosiglitazone,122320-73-4,77999,Yes,10.1016/j.molliq.2024.126543
CN(CCOc1ccc(CC2SC(=O)NC2=O)cc1)c1ccccn1,313.15,ethanol,CCO,0.00067,0.011237459564527146,-1.9493318579669976,Rosiglitazone,122320-73-4,77999,Yes,10.1016/j.molliq.2024.126543
CN(CCOc1ccc(CC2SC(=O)NC2=O)cc1)c1ccccn1,323.15,ethanol,CCO,0.0012379,0.020533032071228644,-1.6875469145079718,Rosiglitazone,122320-73-4,77999,Yes,10.1016/j.molliq.2024.126543
CN(CCOc1ccc(CC2SC(=O)NC2=O)cc1)c1ccccn1,333.15,ethanol,CCO,0.0024425000000000002,0.04009493637535692,-1.3969104713473608,Rosiglitazone,122320-73-4,77999,Yes,10.1016/j.molliq.2024.126543
CCCCCc1ccc2c(c1)C(=O)c1ccccc1C2=O,288.15,ethanol,CCO,0.0029,0.05008272497917232,-1.3003120493818532,2-amyl anthraquinone,13936-21-5,26343,No,10.1016/j.molliq.2025.127079
CCCCCc1ccc2c(c1)C(=O)c1ccccc1C2=O,293.15,ethanol,CCO,0.00392,0.06744700965613244,-1.1710373005306942,2-amyl anthraquinone,13936-21-5,26343,No,10.1016/j.molliq.2025.127079
CCCCCc1ccc2c(c1)C(=O)c1ccccc1C2=O,298.15,ethanol,CCO,0.0053100000000000005,0.09101342738463242,-1.0408945306583632,2-amyl anthraquinone,13936-21-5,26343,No,10.1016/j.molliq.2025.127079
CCCCCc1ccc2c(c1)C(=O)c1ccccc1C2=O,303.15,ethanol,CCO,0.0072499999999999995,0.12378976781343481,-0.9073152516471978,2-amyl anthraquinone,13936-21-5,26343,No,10.1016/j.molliq.2025.127079
CCCCCc1ccc2c(c1)C(=O)c1ccccc1C2=O,308.15,ethanol,CCO,0.00988,0.16816896558699337,-0.7742541471699962,2-amyl anthraquinone,13936-21-5,26343,No,10.1016/j.molliq.2025.127079
CCCCCc1ccc2c(c1)C(=O)c1ccccc1C2=O,313.15,ethanol,CCO,0.01448,0.2462665260988696,-0.6085946158446748,2-amyl anthraquinone,13936-21-5,26343,No,10.1016/j.molliq.2025.127079
CCCCCc1ccc2c(c1)C(=O)c1ccccc1C2=O,318.15,ethanol,CCO,0.01951,0.33156491563878016,-0.47943143032500574,2-amyl anthraquinone,13936-21-5,26343,No,10.1016/j.molliq.2025.127079
CCCCCc1ccc2c(c1)C(=O)c1ccccc1C2=O,323.15,ethanol,CCO,0.02653,0.45148596493410115,-0.3453557457854992,2-amyl anthraquinone,13936-21-5,26343,No,10.1016/j.molliq.2025.127079
OCc1cn(Cc2ccccc2)nn1,292.15,ethanol,CCO,0.05663,1.029917369339324,0.01280238249206113,"(1-benzyl-1H-1,2,3-triazole-4-yl)methanol",28798-81-4,11651290,No,10.1016/j.tca.2016.01.009
OCc1cn(Cc2ccccc2)nn1,295.15,ethanol,CCO,0.0681,1.2496053305528978,0.09677286914587818,"(1-benzyl-1H-1,2,3-triazole-4-yl)methanol",28798-81-4,11651290,No,10.1016/j.tca.2016.01.009
OCc1cn(Cc2ccccc2)nn1,298.15,ethanol,CCO,0.0833,1.5492320400262436,0.19011647015157998,"(1-benzyl-1H-1,2,3-triazole-4-yl)methanol",28798-81-4,11651290,No,10.1016/j.tca.2016.01.009
OCc1cn(Cc2ccccc2)nn1,301.15,ethanol,CCO,0.1034,1.9589203910767432,0.29201678698065014,"(1-benzyl-1H-1,2,3-triazole-4-yl)methanol",28798-81-4,11651290,No,10.1016/j.tca.2016.01.009
OCc1cn(Cc2ccccc2)nn1,304.15,ethanol,CCO,0.1285,2.496165527321736,0.39727338117819616,"(1-benzyl-1H-1,2,3-triazole-4-yl)methanol",28798-81-4,11651290,No,10.1016/j.tca.2016.01.009
OCc1cn(Cc2ccccc2)nn1,307.15,ethanol,CCO,0.1583,3.1732112700745034,0.5014989880704855,"(1-benzyl-1H-1,2,3-triazole-4-yl)methanol",28798-81-4,11651290,No,10.1016/j.tca.2016.01.009
OCc1cn(Cc2ccccc2)nn1,310.15,ethanol,CCO,0.1975,4.1383791254527384,0.6168302747661063,"(1-benzyl-1H-1,2,3-triazole-4-yl)methanol",28798-81-4,11651290,No,10.1016/j.tca.2016.01.009
CCc1nnc(NC(=O)c2ccc([N+](=O)[O-])cc2)s1,288.15,ethanol,CCO,2.81e-05,0.0004838906078971817,-3.3152528072735055,"N-(5-ethyl-1,3,4-thiadiazole-2-yl)-4-nitrobenzamide",313662-95-2,691342,No,10.1016/j.tca.2017.09.010
CCc1nnc(NC(=O)c2ccc([N+](=O)[O-])cc2)s1,293.15,ethanol,CCO,3.17e-05,0.000543305225554091,-3.2649561178663475,"N-(5-ethyl-1,3,4-thiadiazole-2-yl)-4-nitrobenzamide",313662-95-2,691342,No,10.1016/j.tca.2017.09.010
CCc1nnc(NC(=O)c2ccc([N+](=O)[O-])cc2)s1,298.15,ethanol,CCO,3.91e-05,0.0006666416423232621,-3.176107561263028,"N-(5-ethyl-1,3,4-thiadiazole-2-yl)-4-nitrobenzamide",313662-95-2,691342,No,10.1016/j.tca.2017.09.010
CCc1nnc(NC(=O)c2ccc([N+](=O)[O-])cc2)s1,303.15,ethanol,CCO,4.87e-05,0.0008255373926701331,-3.083263250611345,"N-(5-ethyl-1,3,4-thiadiazole-2-yl)-4-nitrobenzamide",313662-95-2,691342,No,10.1016/j.tca.2017.09.010
CCc1nnc(NC(=O)c2ccc([N+](=O)[O-])cc2)s1,308.15,ethanol,CCO,5.95e-05,0.0010028120604670043,-2.998780451575835,"N-(5-ethyl-1,3,4-thiadiazole-2-yl)-4-nitrobenzamide",313662-95-2,691342,No,10.1016/j.tca.2017.09.010
CCc1nnc(NC(=O)c2ccc([N+](=O)[O-])cc2)s1,313.15,ethanol,CCO,7.34e-05,0.0012303543322614626,-2.9099697971906644,"N-(5-ethyl-1,3,4-thiadiazole-2-yl)-4-nitrobenzamide",313662-95-2,691342,No,10.1016/j.tca.2017.09.010
CCc1nnc(NC(=O)c2ccc([N+](=O)[O-])cc2)s1,318.15,ethanol,CCO,8.87e-05,0.0014781435491977553,-2.8302833875939792,"N-(5-ethyl-1,3,4-thiadiazole-2-yl)-4-nitrobenzamide",313662-95-2,691342,No,10.1016/j.tca.2017.09.010
COC(=O)Nc1nc2ccccc2[nH]1,278.15,ethanol,CCO,6.39e-06,0.00011132994150185501,-3.953388019130856,Carbendazim,10605-21-7,25429,No,10.1016/j.tca.2017.12.007
COC(=O)Nc1nc2ccccc2[nH]1,283.15,ethanol,CCO,1.052e-05,0.0001821363665727421,-3.739603331387868,Carbendazim,10605-21-7,25429,No,10.1016/j.tca.2017.12.007
COC(=O)Nc1nc2ccccc2[nH]1,288.15,ethanol,CCO,1.584e-05,0.00027276630807192205,-3.5642092744924394,Carbendazim,10605-21-7,25429,No,10.1016/j.tca.2017.12.007
COC(=O)Nc1nc2ccccc2[nH]1,293.15,ethanol,CCO,2.299e-05,0.000394021398737331,-3.4044801916231986,Carbendazim,10605-21-7,25429,No,10.1016/j.tca.2017.12.007
COC(=O)Nc1nc2ccccc2[nH]1,298.15,ethanol,CCO,3.19e-05,0.000543880185958444,-3.2644967626329926,Carbendazim,10605-21-7,25429,No,10.1016/j.tca.2017.12.007
COC(=O)Nc1nc2ccccc2[nH]1,303.15,ethanol,CCO,4.337e-05,0.0007351820509008126,-3.1336051045733724,Carbendazim,10605-21-7,25429,No,10.1016/j.tca.2017.12.007
COC(=O)Nc1nc2ccccc2[nH]1,308.15,ethanol,CCO,5.778e-05,0.0009738215325539107,-3.0115206268265213,Carbendazim,10605-21-7,25429,No,10.1016/j.tca.2017.12.007
COC(=O)Nc1nc2ccccc2[nH]1,313.15,ethanol,CCO,7.655e-05,0.001283159684410674,-2.8917192939422613,Carbendazim,10605-21-7,25429,No,10.1016/j.tca.2017.12.007
COC(=O)Nc1nc2ccccc2[nH]1,318.15,ethanol,CCO,0.00010055,0.0016756380527942567,-2.7758197856163114,Carbendazim,10605-21-7,25429,No,10.1016/j.tca.2017.12.007
COC(=O)Nc1nc2ccccc2[nH]1,323.15,ethanol,CCO,0.00013353,0.0022124141151847257,-2.6551335793986404,Carbendazim,10605-21-7,25429,No,10.1016/j.tca.2017.12.007
CN(C)c1ccc2nc3ccc(=[N+](C)C)cc-3sc2c1.[Cl-],278.15,ethanol,CCO,0.00366,0.0640002789205229,-1.19381813330705,Methylene blue,61-73-4,6099,No,10.1016/j.tca.2019.03.024
CN(C)c1ccc2nc3ccc(=[N+](C)C)cc-3sc2c1.[Cl-],283.15,ethanol,CCO,0.00434,0.07546664263989741,-1.122244970472355,Methylene blue,61-73-4,6099,No,10.1016/j.tca.2019.03.024
CN(C)c1ccc2nc3ccc(=[N+](C)C)cc-3sc2c1.[Cl-],288.15,ethanol,CCO,0.00517,0.08948914087442705,-1.048229661270008,Methylene blue,61-73-4,6099,No,10.1016/j.tca.2019.03.024
CN(C)c1ccc2nc3ccc(=[N+](C)C)cc-3sc2c1.[Cl-],293.15,ethanol,CCO,0.00608,0.10483903194174275,-0.9794769978770999,Methylene blue,61-73-4,6099,No,10.1016/j.tca.2019.03.024
CN(C)c1ccc2nc3ccc(=[N+](C)C)cc-3sc2c1.[Cl-],298.15,ethanol,CCO,0.00702,0.12053004284393663,-0.9189046890631352,Methylene blue,61-73-4,6099,No,10.1016/j.tca.2019.03.024
CN(C)c1ccc2nc3ccc(=[N+](C)C)cc-3sc2c1.[Cl-],303.15,ethanol,CCO,0.00818,0.13979997045260867,-0.8544929203805403,Methylene blue,61-73-4,6099,No,10.1016/j.tca.2019.03.024
CN(C)c1ccc2nc3ccc(=[N+](C)C)cc-3sc2c1.[Cl-],308.15,ethanol,CCO,0.00968,0.16473146046479933,-0.7832234512158844,Methylene blue,61-73-4,6099,No,10.1016/j.tca.2019.03.024
CN(C)c1ccc2nc3ccc(=[N+](C)C)cc-3sc2c1.[Cl-],313.15,ethanol,CCO,0.01168,0.19808314524105564,-0.7031524767088955,Methylene blue,61-73-4,6099,No,10.1016/j.tca.2019.03.024
CN(C)c1ccc2nc3ccc(=[N+](C)C)cc-3sc2c1.[Cl-],318.15,ethanol,CCO,0.01379,0.23299646566007182,-0.6326506667678427,Methylene blue,61-73-4,6099,No,10.1016/j.tca.2019.03.024
CCC[C@@H]1C[C@@H](C(=O)N[C@@H]([C@H]2O[C@H](SC)[C@H](O)[C@H]3OC(C)(C)O[C@H]32)[C@H](C)Cl)N(C)C1,273.15,ethanol,CCO,0.0146,0.25954121966566607,-0.5857936588107582,"3,4-o-isopropylidene clindamycin",147650-54-2,91872615,No,10.1016/j.tca.2024.179791
CCC[C@@H]1C[C@@H](C(=O)N[C@@H]([C@H]2O[C@H](SC)[C@H](O)[C@H]3OC(C)(C)O[C@H]32)[C@H](C)Cl)N(C)C1,278.15,ethanol,CCO,0.0179,0.31754528419478073,-0.49819433250258577,"3,4-o-isopropylidene clindamycin",147650-54-2,91872615,No,10.1016/j.tca.2024.179791
CCC[C@@H]1C[C@@H](C(=O)N[C@@H]([C@H]2O[C@H](SC)[C@H](O)[C@H]3OC(C)(C)O[C@H]32)[C@H](C)Cl)N(C)C1,283.15,ethanol,CCO,0.0208,0.36776321735072864,-0.43443170984629426,"3,4-o-isopropylidene clindamycin",147650-54-2,91872615,No,10.1016/j.tca.2024.179791
CCC[C@@H]1C[C@@H](C(=O)N[C@@H]([C@H]2O[C@H](SC)[C@H](O)[C@H]3OC(C)(C)O[C@H]32)[C@H](C)Cl)N(C)C1,288.15,ethanol,CCO,0.0243,0.42886305759776544,-0.3676813624166308,"3,4-o-isopropylidene clindamycin",147650-54-2,91872615,No,10.1016/j.tca.2024.179791
CCC[C@@H]1C[C@@H](C(=O)N[C@@H]([C@H]2O[C@H](SC)[C@H](O)[C@H]3OC(C)(C)O[C@H]32)[C@H](C)Cl)N(C)C1,293.15,ethanol,CCO,0.0292,0.5154943817233072,-0.287776063648868,"3,4-o-isopropylidene clindamycin",147650-54-2,91872615,No,10.1016/j.tca.2024.179791
CCC[C@@H]1C[C@@H](C(=O)N[C@@H]([C@H]2O[C@H](SC)[C@H](O)[C@H]3OC(C)(C)O[C@H]32)[C@H](C)Cl)N(C)C1,298.15,ethanol,CCO,0.0352,0.622019598765382,-0.20619593122306773,"3,4-o-isopropylidene clindamycin",147650-54-2,91872615,No,10.1016/j.tca.2024.179791
CCC[C@@H]1C[C@@H](C(=O)N[C@@H]([C@H]2O[C@H](SC)[C@H](O)[C@H]3OC(C)(C)O[C@H]32)[C@H](C)Cl)N(C)C1,303.15,ethanol,CCO,0.0423,0.7486822165841449,-0.1257024825272294,"3,4-o-isopropylidene clindamycin",147650-54-2,91872615,No,10.1016/j.tca.2024.179791
CCC[C@@H]1C[C@@H](C(=O)N[C@@H]([C@H]2O[C@H](SC)[C@H](O)[C@H]3OC(C)(C)O[C@H]32)[C@H](C)Cl)N(C)C1,308.15,ethanol,CCO,0.0506,0.8982102998861725,-0.04662196913738597,"3,4-o-isopropylidene clindamycin",147650-54-2,91872615,No,10.1016/j.tca.2024.179791
CCC[C@@H]1C[C@@H](C(=O)N[C@@H]([C@H]2O[C@H](SC)[C@H](O)[C@H]3OC(C)(C)O[C@H]32)[C@H](C)Cl)N(C)C1,313.15,ethanol,CCO,0.0594,1.0584826289303484,0.024683735079475362,"3,4-o-isopropylidene clindamycin",147650-54-2,91872615,No,10.1016/j.tca.2024.179791
CC1(C)C[C@@H]1C(N)=O,290.04,ethanol,CCO,0.08900999999999999,1.680254194815707,0.22537498830613936,"(S)-(+)-2,2-dimethyl-cyclopropane carbox amide",75885-58-4,10197657,No,10.1016/s1004-9541(06)60112-2
CC1(C)C[C@@H]1C(N)=O,293.28,ethanol,CCO,0.09445,1.7872467350017252,0.25218451235612827,"(S)-(+)-2,2-dimethyl-cyclopropane carbox amide",75885-58-4,10197657,No,10.1016/s1004-9541(06)60112-2
CC1(C)C[C@@H]1C(N)=O,296.81,ethanol,CCO,0.1013,1.9239303748474312,0.28418935129498846,"(S)-(+)-2,2-dimethyl-cyclopropane carbox amide",75885-58-4,10197657,No,10.1016/s1004-9541(06)60112-2
CC1(C)C[C@@H]1C(N)=O,299.25,ethanol,CCO,0.1066,2.031078443756045,0.3077266969313972,"(S)-(+)-2,2-dimethyl-cyclopropane carbox amide",75885-58-4,10197657,No,10.1016/s1004-9541(06)60112-2
CC1(C)C[C@@H]1C(N)=O,302.71,ethanol,CCO,0.1155,2.214225889679744,0.3452219244185716,"(S)-(+)-2,2-dimethyl-cyclopropane carbox amide",75885-58-4,10197657,No,10.1016/s1004-9541(06)60112-2
CC1(C)C[C@@H]1C(N)=O,306.04,ethanol,CCO,0.1232,2.373707333535801,0.3754271715411789,"(S)-(+)-2,2-dimethyl-cyclopropane carbox amide",75885-58-4,10197657,No,10.1016/s1004-9541(06)60112-2
CC1(C)C[C@@H]1C(N)=O,309.67,ethanol,CCO,0.1343,2.6100684312060483,0.4166518938921433,"(S)-(+)-2,2-dimethyl-cyclopropane carbox amide",75885-58-4,10197657,No,10.1016/s1004-9541(06)60112-2
CC1(C)C[C@@H]1C(N)=O,313.53,ethanol,CCO,0.1478,2.9052407842137296,0.4631821322244005,"(S)-(+)-2,2-dimethyl-cyclopropane carbox amide",75885-58-4,10197657,No,10.1016/s1004-9541(06)60112-2
CC1(C)C[C@@H]1C(N)=O,318.09,ethanol,CCO,0.1625,3.23347514438964,0.5096695268894715,"(S)-(+)-2,2-dimethyl-cyclopropane carbox amide",75885-58-4,10197657,No,10.1016/s1004-9541(06)60112-2
Cc1cc(O)c2c(c1)C(=O)c1cc(O)cc(O)c1C2=O,273.65,ethanol,CCO,0.00048499999999999997,0.00849538903170934,-2.070816728571733,Emodin,518-82-1,3220,No,10.1016/s1004-9541(08)60201-3
Cc1cc(O)c2c(c1)C(=O)c1cc(O)cc(O)c1C2=O,278.35,ethanol,CCO,0.000626,0.010910887042568783,-1.962139940334415,Emodin,518-82-1,3220,No,10.1016/s1004-9541(08)60201-3
Cc1cc(O)c2c(c1)C(=O)c1cc(O)cc(O)c1C2=O,289.35,ethanol,CCO,0.000777,0.013382547496061496,-1.873461206585232,Emodin,518-82-1,3220,No,10.1016/s1004-9541(08)60201-3
Cc1cc(O)c2c(c1)C(=O)c1cc(O)cc(O)c1C2=O,298.15,ethanol,CCO,0.0009360000000000001,0.015972806806260287,-1.7966187611713325,Emodin,518-82-1,3220,No,10.1016/s1004-9541(08)60201-3
Cc1cc(O)c2c(c1)C(=O)c1cc(O)cc(O)c1C2=O,307.5,ethanol,CCO,0.00116,0.01958693793981185,-1.7080334527130396,Emodin,518-82-1,3220,No,10.1016/s1004-9541(08)60201-3
Cc1cc(O)c2c(c1)C(=O)c1cc(O)cc(O)c1C2=O,313.25,ethanol,CCO,0.001479,0.024819776761975,-1.605202129020948,Emodin,518-82-1,3220,No,10.1016/s1004-9541(08)60201-3
Cc1cc(O)c2c(c1)C(=O)c1cc(O)cc(O)c1C2=O,318.05,ethanol,CCO,0.001678,0.028011867551248758,-1.5526579357974786,Emodin,518-82-1,3220,No,10.1016/s1004-9541(08)60201-3
Cc1cc(O)c2c(c1)C(=O)c1cc(O)cc(O)c1C2=O,323.05,ethanol,CCO,0.002165,0.03595351795445374,-1.4442586086619753,Emodin,518-82-1,3220,No,10.1016/s1004-9541(08)60201-3
ClCc1ccc(Cl)nc1,277.65,ethanol,CCO,0.0033179999999999998,0.058031588760494725,-1.2363355393704905,2-chloro-5-chloromethylpyridine,70258-18-3,155479,No,10.1016/s1004-9541(10)60271-6
ClCc1ccc(Cl)nc1,279.75,ethanol,CCO,0.003655,0.0638011944198575,-1.1951711907914147,2-chloro-5-chloromethylpyridine,70258-18-3,155479,No,10.1016/s1004-9541(10)60271-6
ClCc1ccc(Cl)nc1,282.05,ethanol,CCO,0.004063,0.0707742658890945,-1.1501246266886644,2-chloro-5-chloromethylpyridine,70258-18-3,155479,No,10.1016/s1004-9541(10)60271-6
ClCc1ccc(Cl)nc1,284.75,ethanol,CCO,0.0045579999999999996,0.0792017578605191,-1.101265179260869,2-chloro-5-chloromethylpyridine,70258-18-3,155479,No,10.1016/s1004-9541(10)60271-6
ClCc1ccc(Cl)nc1,287.35,ethanol,CCO,0.005212,0.09036709643098263,-1.0439896717334913,2-chloro-5-chloromethylpyridine,70258-18-3,155479,No,10.1016/s1004-9541(10)60271-6
ClCc1ccc(Cl)nc1,289.65,ethanol,CCO,0.005763000000000001,0.09972298596705548,-1.001204726060758,2-chloro-5-chloromethylpyridine,70258-18-3,155479,No,10.1016/s1004-9541(10)60271-6
ClCc1ccc(Cl)nc1,292.65,ethanol,CCO,0.006614999999999999,0.11418524719970803,-0.9423900035651228,2-chloro-5-chloromethylpyridine,70258-18-3,155479,No,10.1016/s1004-9541(10)60271-6
ClCc1ccc(Cl)nc1,295.35,ethanol,CCO,0.007487000000000001,0.1289645479042384,-0.8895296599768854,2-chloro-5-chloromethylpyridine,70258-18-3,155479,No,10.1016/s1004-9541(10)60271-6
ClCc1ccc(Cl)nc1,298.35,ethanol,CCO,0.008589,0.14761810848665716,-0.8308603638311173,2-chloro-5-chloromethylpyridine,70258-18-3,155479,No,10.1016/s1004-9541(10)60271-6
ClCc1ccc(Cl)nc1,301.85,ethanol,CCO,0.01019,0.17473412166881735,-0.7576222787291975,2-chloro-5-chloromethylpyridine,70258-18-3,155479,No,10.1016/s1004-9541(10)60271-6
ClCc1ccc(Cl)nc1,304.15,ethanol,CCO,0.01122,0.1921015320630802,-0.716469171505363,2-chloro-5-chloromethylpyridine,70258-18-3,155479,No,10.1016/s1004-9541(10)60271-6
ClCc1ccc(Cl)nc1,305.85,ethanol,CCO,0.01201,0.20539984086603522,-0.6873998972091864,2-chloro-5-chloromethylpyridine,70258-18-3,155479,No,10.1016/s1004-9541(10)60271-6
ClCc1ccc(Cl)nc1,307.25,ethanol,CCO,0.0127,0.21701070505052683,-0.6635188420514695,2-chloro-5-chloromethylpyridine,70258-18-3,155479,No,10.1016/s1004-9541(10)60271-6
O=C[C@H](O)[C@H](O)[C@H](O)CO,283.15,ethanol,CCO,0.0079841,0.13934253099663568,-0.8559163052705919,D-ribose,50-69-1,5311110,No,10.1021/acs.jced.0c00009
O=C[C@H](O)[C@H](O)[C@H](O)CO,293.15,ethanol,CCO,0.0120879,0.20970240264407325,-0.6783965936210399,D-ribose,50-69-1,5311110,No,10.1021/acs.jced.0c00009
O=C[C@H](O)[C@H](O)[C@H](O)CO,303.15,ethanol,CCO,0.0213064,0.3690200516139631,-0.43295003473877286,D-ribose,50-69-1,5311110,No,10.1021/acs.jced.0c00009
O=C[C@H](O)[C@H](O)[C@H](O)CO,313.15,ethanol,CCO,0.039433,0.6880728484076523,-0.1623655792258099,D-ribose,50-69-1,5311110,No,10.1021/acs.jced.0c00009
O=C[C@H](O)[C@H](O)[C@H](O)CO,323.15,ethanol,CCO,0.0675493,1.2001196590429621,0.07922454994034163,D-ribose,50-69-1,5311110,No,10.1021/acs.jced.0c00009
Cl.N=C(N=C(N)N)N1CCOCC1,283.15,ethanol,CCO,0.002298,0.039877281266569684,-1.399274458464075,Moroxydine hydrochloride,,137704772,No,10.1021/acs.jced.0c00015
Cl.N=C(N=C(N)N)N1CCOCC1,293.15,ethanol,CCO,0.002828,0.04860491437790586,-1.3133198175832745,Moroxydine hydrochloride,,137704772,No,10.1021/acs.jced.0c00015
Cl.N=C(N=C(N)N)N1CCOCC1,303.15,ethanol,CCO,0.003558,0.060525802519096686,-1.2180594434838388,Moroxydine hydrochloride,,137704772,No,10.1021/acs.jced.0c00015
Cl.N=C(N=C(N)N)N1CCOCC1,313.15,ethanol,CCO,0.004608,0.07759265080083044,-1.1101794110587306,Moroxydine hydrochloride,,137704772,No,10.1021/acs.jced.0c00015
Cl.N=C(N=C(N)N)N1CCOCC1,323.15,ethanol,CCO,0.006145,0.10243029810335416,-0.9895715633519407,Moroxydine hydrochloride,,137704772,No,10.1021/acs.jced.0c00015
CC(C)(Oc1ccc(CCNC(=O)c2ccc(Cl)cc2)cc1)C(=O)O,283.14,ethanol,CCO,0.0025829,0.04487178221554739,-1.3480266808345074,Bezafibrate,41859-67-0,39042,Yes,10.1021/acs.jced.0c00025
CC(C)(Oc1ccc(CCNC(=O)c2ccc(Cl)cc2)cc1)C(=O)O,288.24,ethanol,CCO,0.0028158,0.048656133924811905,-1.3128624018134183,Bezafibrate,41859-67-0,39042,Yes,10.1021/acs.jced.0c00025
CC(C)(Oc1ccc(CCNC(=O)c2ccc(Cl)cc2)cc1)C(=O)O,293.3,ethanol,CCO,0.0032939,0.05662766629283081,-1.2469713359018109,Bezafibrate,41859-67-0,39042,Yes,10.1021/acs.jced.0c00025
CC(C)(Oc1ccc(CCNC(=O)c2ccc(Cl)cc2)cc1)C(=O)O,298.28,ethanol,CCO,0.0039067,0.06683356854590032,-1.1750053493144814,Bezafibrate,41859-67-0,39042,Yes,10.1021/acs.jced.0c00025
CC(C)(Oc1ccc(CCNC(=O)c2ccc(Cl)cc2)cc1)C(=O)O,303.24,ethanol,CCO,0.0046511,0.0791882156794982,-1.1013394427306227,Bezafibrate,41859-67-0,39042,Yes,10.1021/acs.jced.0c00025
CC(C)(Oc1ccc(CCNC(=O)c2ccc(Cl)cc2)cc1)C(=O)O,308.22,ethanol,CCO,0.0053843,0.09122767621273256,-1.0398733875152553,Bezafibrate,41859-67-0,39042,Yes,10.1021/acs.jced.0c00025
CC(C)(Oc1ccc(CCNC(=O)c2ccc(Cl)cc2)cc1)C(=O)O,313.13,ethanol,CCO,0.0066416,0.11205020007024948,-0.9505873636775343,Bezafibrate,41859-67-0,39042,Yes,10.1021/acs.jced.0c00025
CC(C)(Oc1ccc(CCNC(=O)c2ccc(Cl)cc2)cc1)C(=O)O,318.18,ethanol,CCO,0.0080209,0.13473395748272765,-0.8705229336847861,Bezafibrate,41859-67-0,39042,Yes,10.1021/acs.jced.0c00025