SMILES_Solute,Temperature_K,Solvent,SMILES_Solvent,Solubility(mole_fraction),Solubility(mol/L),LogS(mol/L),Compound_Name,CAS,PubChem_CID,FDA_Approved,Source
CC(C)(OOC(C)(C)c1ccccc1)c1ccccc1,290.15,ethanol,CCO,0.04185,0.7510330685494397,-0.1243409402629847,Dicumyl peroxide (dcp),80-43-3,6641,No,10.1016/j.molliq.2020.113268
CC(C)(OOC(C)(C)c1ccccc1)c1ccccc1,294.15,ethanol,CCO,0.05726,1.0397668061356298,0.0169359487561144,Dicumyl peroxide (dcp),80-43-3,6641,No,10.1016/j.molliq.2020.113268
CC(C)(OOC(C)(C)c1ccccc1)c1ccccc1,298.15,ethanol,CCO,0.0851,1.5858227087175552,0.20025463258466406,Dicumyl peroxide (dcp),80-43-3,6641,No,10.1016/j.molliq.2020.113268
CC(C)(OOC(C)(C)c1ccccc1)c1ccccc1,302.15,ethanol,CCO,0.14166,2.8002553285083933,0.4471976323089038,Dicumyl peroxide (dcp),80-43-3,6641,No,10.1016/j.molliq.2020.113268
CC(C)C(N)=O,273.15,ethanol,CCO,0.04743,0.872212423178687,-0.05937773183419553,Isobutyramide,563-83-7,68424,No,10.1016/j.molliq.2020.113294
CC(C)C(N)=O,279.15,ethanol,CCO,0.05992,1.1092827512636227,0.04504226000124913,Isobutyramide,563-83-7,68424,No,10.1016/j.molliq.2020.113294
CC(C)C(N)=O,283.95,ethanol,CCO,0.07153999999999999,1.3339606724187534,0.12514302597986257,Isobutyramide,563-83-7,68424,No,10.1016/j.molliq.2020.113294
CC(C)C(N)=O,289.15,ethanol,CCO,0.086,1.6196760978247338,0.20942817318959708,Isobutyramide,563-83-7,68424,No,10.1016/j.molliq.2020.113294
CC(C)C(N)=O,293.85,ethanol,CCO,0.1016,1.936621911424299,0.2870448412613456,Isobutyramide,563-83-7,68424,No,10.1016/j.molliq.2020.113294
CC(C)C(N)=O,299.15,ethanol,CCO,0.1213,2.350087356451017,0.3710840059821665,Isobutyramide,563-83-7,68424,No,10.1016/j.molliq.2020.113294
CC(C)C(N)=O,303.45,ethanol,CCO,0.13949999999999999,2.7466382326837797,0.43880146106029866,Isobutyramide,563-83-7,68424,No,10.1016/j.molliq.2020.113294
CC(C)C(N)=O,309.05,ethanol,CCO,0.1664,3.3607977302268592,0.5264423752217104,Isobutyramide,563-83-7,68424,No,10.1016/j.molliq.2020.113294
CC(C)C(N)=O,313.25,ethanol,CCO,0.18899999999999997,3.905061248765264,0.591627849939868,Isobutyramide,563-83-7,68424,No,10.1016/j.molliq.2020.113294
CC(C)C(N)=O,319.15,ethanol,CCO,0.2259,4.857310313399129,0.6863958496315591,Isobutyramide,563-83-7,68424,No,10.1016/j.molliq.2020.113294
CC(C)C(N)=O,324.15,ethanol,CCO,0.2596,5.802742818133066,0.7636333227374117,Isobutyramide,563-83-7,68424,No,10.1016/j.molliq.2020.113294
Oc1ccc(/C=C/c2cc(O)cc(O)c2)cc1,283.15,ethanol,CCO,0.0212,0.374988768601686,-0.42598173975857,Trans-resveratrol,501-36-0,445154,No,10.1016/j.molliq.2020.113363
Oc1ccc(/C=C/c2cc(O)cc(O)c2)cc1,288.15,ethanol,CCO,0.022400000000000003,0.394562216306935,-0.4038845055893078,Trans-resveratrol,501-36-0,445154,No,10.1016/j.molliq.2020.113363
Oc1ccc(/C=C/c2cc(O)cc(O)c2)cc1,293.15,ethanol,CCO,0.0236,0.4142429107883336,-0.3827449152124336,Trans-resveratrol,501-36-0,445154,No,10.1016/j.molliq.2020.113363
Oc1ccc(/C=C/c2cc(O)cc(O)c2)cc1,298.15,ethanol,CCO,0.0248,0.4335674681080352,-0.36294331168923183,Trans-resveratrol,501-36-0,445154,No,10.1016/j.molliq.2020.113363
Oc1ccc(/C=C/c2cc(O)cc(O)c2)cc1,303.15,ethanol,CCO,0.026099999999999998,0.4542686633005798,-0.3426872209776562,Trans-resveratrol,501-36-0,445154,No,10.1016/j.molliq.2020.113363
Cc1ccc(S(=O)(=O)NC(=O)NN2CC3CCCC3C2)cc1,278.15,ethanol,CCO,0.00073911,0.01288660556768263,-1.8898614641332732,Gliclazide,21187-98-4,3475,Yes,10.1016/j.molliq.2020.113425
Cc1ccc(S(=O)(=O)NC(=O)NN2CC3CCCC3C2)cc1,283.15,ethanol,CCO,0.00091145,0.01579447618963418,-1.8014947725270258,Gliclazide,21187-98-4,3475,Yes,10.1016/j.molliq.2020.113425
Cc1ccc(S(=O)(=O)NC(=O)NN2CC3CCCC3C2)cc1,288.15,ethanol,CCO,0.00112582,0.01940827071902615,-1.7120131586168665,Gliclazide,21187-98-4,3475,Yes,10.1016/j.molliq.2020.113425
Cc1ccc(S(=O)(=O)NC(=O)NN2CC3CCCC3C2)cc1,293.15,ethanol,CCO,0.00137065,0.023523021040406385,-1.6285069029647918,Gliclazide,21187-98-4,3475,Yes,10.1016/j.molliq.2020.113425
Cc1ccc(S(=O)(=O)NC(=O)NN2CC3CCCC3C2)cc1,298.15,ethanol,CCO,0.0016914100000000002,0.028885692651102284,-1.5393172140341158,Gliclazide,21187-98-4,3475,Yes,10.1016/j.molliq.2020.113425
Cc1ccc(S(=O)(=O)NC(=O)NN2CC3CCCC3C2)cc1,303.15,ethanol,CCO,0.00202999,0.03447966562892089,-1.4624369544545954,Gliclazide,21187-98-4,3475,Yes,10.1016/j.molliq.2020.113425
Cc1ccc(S(=O)(=O)NC(=O)NN2CC3CCCC3C2)cc1,308.15,ethanol,CCO,0.00248963,0.042062407909183724,-1.3761058692688484,Gliclazide,21187-98-4,3475,Yes,10.1016/j.molliq.2020.113425
Cc1ccc(S(=O)(=O)NC(=O)NN2CC3CCCC3C2)cc1,313.15,ethanol,CCO,0.00295648,0.04970076742330372,-1.3036369053283792,Gliclazide,21187-98-4,3475,Yes,10.1016/j.molliq.2020.113425
Cc1ccc(S(=O)(=O)NC(=O)NN2CC3CCCC3C2)cc1,318.15,ethanol,CCO,0.0035786499999999996,0.05984538565289971,-1.2229693300151208,Gliclazide,21187-98-4,3475,Yes,10.1016/j.molliq.2020.113425
Cn1nc([N+](=O)[O-])c([N+](=O)[O-])c1[N+](=O)[O-],283.15,ethanol,CCO,0.003752,0.06520362291610118,-1.1857282728454037,"1-methyl-3,4,5-trinitropyrazole",,57788216,No,10.1016/j.molliq.2020.113895
Cn1nc([N+](=O)[O-])c([N+](=O)[O-])c1[N+](=O)[O-],288.15,ethanol,CCO,0.004949,0.08564475715999526,-1.0672992177092675,"1-methyl-3,4,5-trinitropyrazole",,57788216,No,10.1016/j.molliq.2020.113895
Cn1nc([N+](=O)[O-])c([N+](=O)[O-])c1[N+](=O)[O-],293.15,ethanol,CCO,0.007337000000000001,0.12667401533840608,-0.8973124628790818,"1-methyl-3,4,5-trinitropyrazole",,57788216,No,10.1016/j.molliq.2020.113895
Cn1nc([N+](=O)[O-])c([N+](=O)[O-])c1[N+](=O)[O-],298.15,ethanol,CCO,0.01096,0.18892759580863344,-0.7237046019929666,"1-methyl-3,4,5-trinitropyrazole",,57788216,No,10.1016/j.molliq.2020.113895
Cn1nc([N+](=O)[O-])c([N+](=O)[O-])c1[N+](=O)[O-],303.15,ethanol,CCO,0.015719999999999998,0.27072011050815337,-0.5674794813616991,"1-methyl-3,4,5-trinitropyrazole",,57788216,No,10.1016/j.molliq.2020.113895
Cn1nc([N+](=O)[O-])c([N+](=O)[O-])c1[N+](=O)[O-],308.15,ethanol,CCO,0.02181,0.3757588242353727,-0.42509081174775976,"1-methyl-3,4,5-trinitropyrazole",,57788216,No,10.1016/j.molliq.2020.113895
Cn1nc([N+](=O)[O-])c([N+](=O)[O-])c1[N+](=O)[O-],313.15,ethanol,CCO,0.0292,0.5041448653292133,-0.29744465170313644,"1-methyl-3,4,5-trinitropyrazole",,57788216,No,10.1016/j.molliq.2020.113895
Cn1nc([N+](=O)[O-])c([N+](=O)[O-])c1[N+](=O)[O-],318.15,ethanol,CCO,0.03804,0.6589280015203641,-0.18116203646918375,"1-methyl-3,4,5-trinitropyrazole",,57788216,No,10.1016/j.molliq.2020.113895
Cn1nc([N+](=O)[O-])c([N+](=O)[O-])c1[N+](=O)[O-],323.15,ethanol,CCO,0.0482,0.8389400240521938,-0.07626908583901951,"1-methyl-3,4,5-trinitropyrazole",,57788216,No,10.1016/j.molliq.2020.113895
O=C(c1ccc(F)cc1)c1ccc(F)cc1,293.15,ethanol,CCO,0.0084,0.1451822826995629,-0.8380863794712913,"4,4-difluorobenzophenone",345-92-6,9582,No,10.1016/j.molliq.2020.113903
O=C(c1ccc(F)cc1)c1ccc(F)cc1,298.15,ethanol,CCO,0.0104,0.17917291227757143,-0.7467276472274066,"4,4-difluorobenzophenone",345-92-6,9582,No,10.1016/j.molliq.2020.113903
O=C(c1ccc(F)cc1)c1ccc(F)cc1,303.15,ethanol,CCO,0.0129,0.22152114927510508,-0.654584804091023,"4,4-difluorobenzophenone",345-92-6,9582,No,10.1016/j.molliq.2020.113903
O=C(c1ccc(F)cc1)c1ccc(F)cc1,308.15,ethanol,CCO,0.016,0.27403221784502463,-0.5621983743702607,"4,4-difluorobenzophenone",345-92-6,9582,No,10.1016/j.molliq.2020.113903
O=C(c1ccc(F)cc1)c1ccc(F)cc1,313.15,ethanol,CCO,0.0197,0.33682900938395727,-0.47259051196801494,"4,4-difluorobenzophenone",345-92-6,9582,No,10.1016/j.molliq.2020.113903
O=C(c1ccc(F)cc1)c1ccc(F)cc1,318.15,ethanol,CCO,0.0242,0.4132463450488471,-0.38379097885061497,"4,4-difluorobenzophenone",345-92-6,9582,No,10.1016/j.molliq.2020.113903
O=C(c1ccc(F)cc1)c1ccc(F)cc1,323.15,ethanol,CCO,0.0297,0.5070841013862435,-0.2949200056786393,"4,4-difluorobenzophenone",345-92-6,9582,No,10.1016/j.molliq.2020.113903
O=C(c1ccc(F)cc1)c1ccc(F)cc1,328.15,ethanol,CCO,0.0364,0.622026153651289,-0.2061913546216471,"4,4-difluorobenzophenone",345-92-6,9582,No,10.1016/j.molliq.2020.113903
O=C(c1ccc(F)cc1)c1ccc(F)cc1,333.15,ethanol,CCO,0.0447,0.7662326253109606,-0.11563936019571515,"4,4-difluorobenzophenone",345-92-6,9582,No,10.1016/j.molliq.2020.113903
CCCOC(=O)c1cc(O)c(O)c(O)c1,293.15,ethanol,CCO,0.1816,3.8029540329736595,0.5801210760435734,Propyl gallate,121-79-9,4947,No,10.1016/j.molliq.2020.114035
CCCOC(=O)c1cc(O)c(O)c(O)c1,298.15,ethanol,CCO,0.20149999999999998,4.302281569886056,0.6336988300975038,Propyl gallate,121-79-9,4947,No,10.1016/j.molliq.2020.114035
CCCOC(=O)c1cc(O)c(O)c(O)c1,303.15,ethanol,CCO,0.2223,4.845225578675555,0.6853140012615953,Propyl gallate,121-79-9,4947,No,10.1016/j.molliq.2020.114035
CCCOC(=O)c1cc(O)c(O)c(O)c1,308.15,ethanol,CCO,0.2439,5.436373710941268,0.7353093036566676,Propyl gallate,121-79-9,4947,No,10.1016/j.molliq.2020.114035
CCCOC(=O)c1cc(O)c(O)c(O)c1,313.15,ethanol,CCO,0.2659,6.07107192088997,0.783265377768458,Propyl gallate,121-79-9,4947,No,10.1016/j.molliq.2020.114035
CCCOC(=O)c1cc(O)c(O)c(O)c1,318.15,ethanol,CCO,0.2884,6.753264901874891,0.8295137855807052,Propyl gallate,121-79-9,4947,No,10.1016/j.molliq.2020.114035
CCCOC(=O)c1cc(O)c(O)c(O)c1,323.15,ethanol,CCO,0.31120000000000003,7.484728066210033,0.8741760262569226,Propyl gallate,121-79-9,4947,No,10.1016/j.molliq.2020.114035
CCCOC(=O)c1cc(O)c(O)c(O)c1,328.15,ethanol,CCO,0.3225,7.838346763506273,0.8942244724804459,Propyl gallate,121-79-9,4947,No,10.1016/j.molliq.2020.114035
CCCOC(=O)c1cc(O)c(O)c(O)c1,333.15,ethanol,CCO,0.33380000000000004,8.204924675430567,0.9140745984061729,Propyl gallate,121-79-9,4947,No,10.1016/j.molliq.2020.114035
COc1ccc2[nH]cc(CCNC(C)=O)c2c1,278.15,ethanol,CCO,0.008529,0.14987405098476098,-0.8242735538739886,Melatonin,73-31-4,896,Yes,10.1016/j.molliq.2020.114139
COc1ccc2[nH]cc(CCNC(C)=O)c2c1,283.15,ethanol,CCO,0.011300000000000001,0.1978746999487049,-0.7036097306802916,Melatonin,73-31-4,896,Yes,10.1016/j.molliq.2020.114139
COc1ccc2[nH]cc(CCNC(C)=O)c2c1,288.15,ethanol,CCO,0.01514,0.2647159106323999,-0.57721995483695,Melatonin,73-31-4,896,Yes,10.1016/j.molliq.2020.114139
COc1ccc2[nH]cc(CCNC(C)=O)c2c1,293.15,ethanol,CCO,0.01996,0.3490499562258799,-0.4571124121221641,Melatonin,73-31-4,896,Yes,10.1016/j.molliq.2020.114139
COc1ccc2[nH]cc(CCNC(C)=O)c2c1,298.15,ethanol,CCO,0.02536,0.44361244179147385,-0.35299628189707044,Melatonin,73-31-4,896,Yes,10.1016/j.molliq.2020.114139
COc1ccc2[nH]cc(CCNC(C)=O)c2c1,303.15,ethanol,CCO,0.03201,0.5605333293649963,-0.2513985591101152,Melatonin,73-31-4,896,Yes,10.1016/j.molliq.2020.114139
COc1ccc2[nH]cc(CCNC(C)=O)c2c1,308.15,ethanol,CCO,0.04065,0.7141019375693078,-0.1462397885545309,Melatonin,73-31-4,896,Yes,10.1016/j.molliq.2020.114139
COc1ccc2[nH]cc(CCNC(C)=O)c2c1,313.15,ethanol,CCO,0.05275,0.9333834896997949,-0.029939885468958066,Melatonin,73-31-4,896,Yes,10.1016/j.molliq.2020.114139
COc1ccc2[nH]cc(CCNC(C)=O)c2c1,318.15,ethanol,CCO,0.0665,1.1870302647842352,0.0744617919632087,Melatonin,73-31-4,896,Yes,10.1016/j.molliq.2020.114139
COc1ccc2[nH]cc(CCNC(C)=O)c2c1,323.15,ethanol,CCO,0.08438999999999999,1.526898034369622,0.18381003601569548,Melatonin,73-31-4,896,Yes,10.1016/j.molliq.2020.114139
O=c1cc[nH]c(=O)[nH]1,283.15,ethanol,CCO,7.7e-05,0.0013332160310525246,-2.8750994728724493,Uracil,66-22-8,1174,No,10.1016/j.molliq.2020.114259
O=c1cc[nH]c(=O)[nH]1,288.15,ethanol,CCO,9.1e-05,0.0015671464523901598,-2.8048904161077393,Uracil,66-22-8,1174,No,10.1016/j.molliq.2020.114259
O=c1cc[nH]c(=O)[nH]1,293.15,ethanol,CCO,0.000113,0.00193686064171825,-2.712901625904552,Uracil,66-22-8,1174,No,10.1016/j.molliq.2020.114259
O=c1cc[nH]c(=O)[nH]1,298.15,ethanol,CCO,0.000135,0.002301924643349394,-2.637908897697195,Uracil,66-22-8,1174,No,10.1016/j.molliq.2020.114259
O=c1cc[nH]c(=O)[nH]1,303.15,ethanol,CCO,0.000166,0.0028142768901660725,-2.5506331755738483,Uracil,66-22-8,1174,No,10.1016/j.molliq.2020.114259
O=c1cc[nH]c(=O)[nH]1,308.15,ethanol,CCO,0.000212,0.0035735896572707724,-2.4468953174750836,Uracil,66-22-8,1174,No,10.1016/j.molliq.2020.114259
O=c1cc[nH]c(=O)[nH]1,313.15,ethanol,CCO,0.000248,0.004157781511488715,-2.381138336276297,Uracil,66-22-8,1174,No,10.1016/j.molliq.2020.114259
O=c1cc[nH]c(=O)[nH]1,318.15,ethanol,CCO,0.000296,0.004933722857817353,-2.306825249799889,Uracil,66-22-8,1174,No,10.1016/j.molliq.2020.114259
Nc1cccc(C(=O)O)c1O,293.2,ethanol,CCO,0.00018600000000000002,0.0031880650410013654,-2.4964728269685694,3-aminoSalicylic acid,570-23-0,68443,No,10.1016/j.molliq.2020.114310
Nc1cccc(C(=O)O)c1O,298.2,ethanol,CCO,0.00023799999999999998,0.004056986943888496,-2.3917963899309473,3-aminoSalicylic acid,570-23-0,68443,No,10.1016/j.molliq.2020.114310
Nc1cccc(C(=O)O)c1O,303.2,ethanol,CCO,0.000285,0.004831347949844742,-2.3159316838432438,3-aminoSalicylic acid,570-23-0,68443,No,10.1016/j.molliq.2020.114310
Nc1cccc(C(=O)O)c1O,308.2,ethanol,CCO,0.000332,0.005596863856573669,-2.2520552571557895,3-aminoSalicylic acid,570-23-0,68443,No,10.1016/j.molliq.2020.114310
Nc1cccc(C(=O)O)c1O,313.2,ethanol,CCO,0.000386,0.006470926312990959,-2.18903354563346,3-aminoSalicylic acid,570-23-0,68443,No,10.1016/j.molliq.2020.114310
Nc1ccc(S(N)(=O)=O)cc1,293.15,ethanol,CCO,0.007289,0.12583920576425592,-0.9001840314312533,Sulfanilamide,63-74-1,5333,Yes,10.1016/j.molliq.2020.114342
Nc1ccc(S(N)(=O)=O)cc1,303.15,ethanol,CCO,0.011441,0.1961769728477644,-0.7073519712275153,Sulfanilamide,63-74-1,5333,Yes,10.1016/j.molliq.2020.114342
Nc1ccc(S(N)(=O)=O)cc1,308.15,ethanol,CCO,0.014762,0.25251128294832076,-0.5977192115543586,Sulfanilamide,63-74-1,5333,Yes,10.1016/j.molliq.2020.114342
Nc1ccc(S(N)(=O)=O)cc1,313.15,ethanol,CCO,0.019042,0.3253601892389467,-0.48763558800509654,Sulfanilamide,63-74-1,5333,Yes,10.1016/j.molliq.2020.114342
Nc1ccc(S(N)(=O)=O)cc1,323.15,ethanol,CCO,0.026769,0.45566512467187364,-0.3413542098247652,Sulfanilamide,63-74-1,5333,Yes,10.1016/j.molliq.2020.114342
O=C1CC[C@@H](C(=O)O)N1,293.95,ethanol,CCO,0.03025,0.5341194095578231,-0.2723616397603212,L-pyroglutamic acid,98-79-3,7405,No,10.1016/j.molliq.2020.114361
O=C1CC[C@@H](C(=O)O)N1,297.85,ethanol,CCO,0.03408,0.6015210830129762,-0.2207491462530893,L-pyroglutamic acid,98-79-3,7405,No,10.1016/j.molliq.2020.114361
O=C1CC[C@@H](C(=O)O)N1,302.95,ethanol,CCO,0.04003,0.7068855370179101,-0.15065090397679715,L-pyroglutamic acid,98-79-3,7405,No,10.1016/j.molliq.2020.114361
O=C1CC[C@@H](C(=O)O)N1,309.25,ethanol,CCO,0.049980000000000004,0.8855485891303212,-0.052787604533481566,L-pyroglutamic acid,98-79-3,7405,No,10.1016/j.molliq.2020.114361
O=C1CC[C@@H](C(=O)O)N1,313.65,ethanol,CCO,0.0575,1.0218254100492088,0.00937669821602762,L-pyroglutamic acid,98-79-3,7405,No,10.1016/j.molliq.2020.114361
O=C1CC[C@@H](C(=O)O)N1,318.25,ethanol,CCO,0.06715,1.1993780063636736,0.07895608068445989,L-pyroglutamic acid,98-79-3,7405,No,10.1016/j.molliq.2020.114361
O=C1CC[C@@H](C(=O)O)N1,322.95,ethanol,CCO,0.07658000000000001,1.3743837722326213,0.13810801867035047,L-pyroglutamic acid,98-79-3,7405,No,10.1016/j.molliq.2020.114361
O=C1CC[C@@H](C(=O)O)N1,328.75,ethanol,CCO,0.09454000000000001,1.7188804440392764,0.23524567057902335,L-pyroglutamic acid,98-79-3,7405,No,10.1016/j.molliq.2020.114361
O=C1CC[C@@H](C(=O)O)N1,331.95,ethanol,CCO,0.1063,1.9509073757461513,0.2902366506568235,L-pyroglutamic acid,98-79-3,7405,No,10.1016/j.molliq.2020.114361
O=C1CC[C@@H](C(=O)O)N1,337.05,ethanol,CCO,0.1259,2.348501015146199,0.3707907522443251,L-pyroglutamic acid,98-79-3,7405,No,10.1016/j.molliq.2020.114361
[Cl-].c1ccc2c(CC3=[NH+]CCN3)cccc2c1,278.15,ethanol,CCO,0.003132,0.05473844372974469,-1.2617075541891782,Naphazoline hydrochloride,,,No,10.1016/j.molliq.2020.114632
[Cl-].c1ccc2c(CC3=[NH+]CCN3)cccc2c1,283.15,ethanol,CCO,0.0038629999999999997,0.0671401019738503,-1.1730180034715803,Naphazoline hydrochloride,,,No,10.1016/j.molliq.2020.114632
[Cl-].c1ccc2c(CC3=[NH+]CCN3)cccc2c1,288.15,ethanol,CCO,0.004567,0.07900373916138394,-1.1023523535358024,Naphazoline hydrochloride,,,No,10.1016/j.molliq.2020.114632
[Cl-].c1ccc2c(CC3=[NH+]CCN3)cccc2c1,293.15,ethanol,CCO,0.005453,0.09396822828038515,-1.0270189614526848,Naphazoline hydrochloride,,,No,10.1016/j.molliq.2020.114632
[Cl-].c1ccc2c(CC3=[NH+]CCN3)cccc2c1,298.15,ethanol,CCO,0.006391,0.10966094927192702,-0.9599479989980845,Naphazoline hydrochloride,,,No,10.1016/j.molliq.2020.114632
[Cl-].c1ccc2c(CC3=[NH+]CCN3)cccc2c1,303.15,ethanol,CCO,0.0076029999999999995,0.12986322542032935,-0.8865138147325139,Naphazoline hydrochloride,,,No,10.1016/j.molliq.2020.114632
[Cl-].c1ccc2c(CC3=[NH+]CCN3)cccc2c1,308.15,ethanol,CCO,0.008928,0.1518188566689437,-0.8186742835217695,Naphazoline hydrochloride,,,No,10.1016/j.molliq.2020.114632
[Cl-].c1ccc2c(CC3=[NH+]CCN3)cccc2c1,313.15,ethanol,CCO,0.01039,0.17597611956612863,-0.7545462631194856,Naphazoline hydrochloride,,,No,10.1016/j.molliq.2020.114632
[Cl-].c1ccc2c(CC3=[NH+]CCN3)cccc2c1,318.15,ethanol,CCO,0.01198,0.20204381073332936,-0.6945544488864273,Naphazoline hydrochloride,,,No,10.1016/j.molliq.2020.114632
[Cl-].c1ccc2c(CC3=[NH+]CCN3)cccc2c1,323.15,ethanol,CCO,0.01398,0.23488269632285982,-0.6291489762760372,Naphazoline hydrochloride,,,No,10.1016/j.molliq.2020.114632
O=C1c2ccccc2C(=O)N1O,278.15,ethanol,CCO,0.003067,0.053598933897010634,-1.2708438485021933,N-hydroxyphthalimide,524-38-9,10665,No,10.1016/j.molliq.2020.114677
O=C1c2ccccc2C(=O)N1O,283.15,ethanol,CCO,0.0036569999999999997,0.06354661864138603,-1.1969075535986713,N-hydroxyphthalimide,524-38-9,10665,No,10.1016/j.molliq.2020.114677
O=C1c2ccccc2C(=O)N1O,288.15,ethanol,CCO,0.004418,0.07641477602149925,-1.1168226555063423,N-hydroxyphthalimide,524-38-9,10665,No,10.1016/j.molliq.2020.114677
O=C1c2ccccc2C(=O)N1O,293.15,ethanol,CCO,0.005255,0.09053819000553612,-1.0431681919532612,N-hydroxyphthalimide,524-38-9,10665,No,10.1016/j.molliq.2020.114677
O=C1c2ccccc2C(=O)N1O,298.15,ethanol,CCO,0.006137999999999999,0.10529299966946272,-0.9776005016158861,N-hydroxyphthalimide,524-38-9,10665,No,10.1016/j.molliq.2020.114677
O=C1c2ccccc2C(=O)N1O,303.15,ethanol,CCO,0.007287,0.12442615987953737,-0.9050883021456438,N-hydroxyphthalimide,524-38-9,10665,No,10.1016/j.molliq.2020.114677
O=C1c2ccccc2C(=O)N1O,308.15,ethanol,CCO,0.008552,0.14536990029850785,-0.837525507421294,N-hydroxyphthalimide,524-38-9,10665,No,10.1016/j.molliq.2020.114677
O=C1c2ccccc2C(=O)N1O,313.15,ethanol,CCO,0.01005,0.17015905550713034,-0.769144933714048,N-hydroxyphthalimide,524-38-9,10665,No,10.1016/j.molliq.2020.114677
O=C1c2ccccc2C(=O)N1O,318.15,ethanol,CCO,0.01172,0.19760688586784023,-0.7041979259310744,N-hydroxyphthalimide,524-38-9,10665,No,10.1016/j.molliq.2020.114677
O=C1c2ccccc2C(=O)N1O,323.15,ethanol,CCO,0.01384,0.23249749794663183,-0.6335817164678688,N-hydroxyphthalimide,524-38-9,10665,No,10.1016/j.molliq.2020.114677
CC(=O)[C@H]1CC[C@H]2[C@@H]3CCC4=CC(=O)CC[C@]4(C)[C@H]3CC[C@]12C,278.15,ethanol,CCO,0.003367,0.05885945015342112,-1.2301837992607108,Progesterone,57-83-0,5994,Yes,10.1016/j.molliq.2020.114715
CC(=O)[C@H]1CC[C@H]2[C@@H]3CCC4=CC(=O)CC[C@]4(C)[C@H]3CC[C@]12C,283.15,ethanol,CCO,0.004554,0.07920483260699326,-1.1012483195402827,Progesterone,57-83-0,5994,Yes,10.1016/j.molliq.2020.114715
CC(=O)[C@H]1CC[C@H]2[C@@H]3CCC4=CC(=O)CC[C@]4(C)[C@H]3CC[C@]12C,288.15,ethanol,CCO,0.0062309999999999996,0.10796947140151718,-0.9666990248473596,Progesterone,57-83-0,5994,Yes,10.1016/j.molliq.2020.114715
CC(=O)[C@H]1CC[C@H]2[C@@H]3CCC4=CC(=O)CC[C@]4(C)[C@H]3CC[C@]12C,293.15,ethanol,CCO,0.008589,0.14847718396729156,-0.8283402779184763,Progesterone,57-83-0,5994,Yes,10.1016/j.molliq.2020.114715
CC(=O)[C@H]1CC[C@H]2[C@@H]3CCC4=CC(=O)CC[C@]4(C)[C@H]3CC[C@]12C,298.15,ethanol,CCO,0.011193999999999999,0.19300693303170005,-0.7144270903532073,Progesterone,57-83-0,5994,Yes,10.1016/j.molliq.2020.114715
CC(=O)[C@H]1CC[C@H]2[C@@H]3CCC4=CC(=O)CC[C@]4(C)[C@H]3CC[C@]12C,303.15,ethanol,CCO,0.014636,0.25177485059817983,-0.5989876530681828,Progesterone,57-83-0,5994,Yes,10.1016/j.molliq.2020.114715
CC(=O)[C@H]1CC[C@H]2[C@@H]3CCC4=CC(=O)CC[C@]4(C)[C@H]3CC[C@]12C,308.15,ethanol,CCO,0.019244,0.33068242663098035,-0.4805888840702198,Progesterone,57-83-0,5994,Yes,10.1016/j.molliq.2020.114715