SMILES_Solute,Temperature_K,Solvent,SMILES_Solvent,Solubility(mole_fraction),Solubility(mol/L),LogS(mol/L),Compound_Name,CAS,PubChem_CID,FDA_Approved,Source
O=Cc1cc(C=O)cc(C=O)c1,293.15,ethanol,CCO,0.002508,0.04309123720677357,-1.365611036560015,"1,3,5-triformylbenzene",3163-76-6,2747968,No,10.1021/acs.jced.0c00776
O=Cc1cc(C=O)cc(C=O)c1,298.15,ethanol,CCO,0.002974,0.050854944007894594,-1.293666819516599,"1,3,5-triformylbenzene",3163-76-6,2747968,No,10.1021/acs.jced.0c00776
O=Cc1cc(C=O)cc(C=O)c1,303.15,ethanol,CCO,0.003649,0.062079489920274566,-1.207051860140979,"1,3,5-triformylbenzene",3163-76-6,2747968,No,10.1021/acs.jced.0c00776
O=Cc1cc(C=O)cc(C=O)c1,308.15,ethanol,CCO,0.004286,0.07254279669619207,-1.139405705354553,"1,3,5-triformylbenzene",3163-76-6,2747968,No,10.1021/acs.jced.0c00776
O=Cc1cc(C=O)cc(C=O)c1,313.15,ethanol,CCO,0.005202,0.08764713185356131,-1.0572622910995884,"1,3,5-triformylbenzene",3163-76-6,2747968,No,10.1021/acs.jced.0c00776
O=Cc1cc(C=O)cc(C=O)c1,318.15,ethanol,CCO,0.006144,0.10301067002838156,-0.9871177879701288,"1,3,5-triformylbenzene",3163-76-6,2747968,No,10.1021/acs.jced.0c00776
O=Cc1cc(C=O)cc(C=O)c1,323.15,ethanol,CCO,0.007034,0.1173539095189861,-0.9305024377719018,"1,3,5-triformylbenzene",3163-76-6,2747968,No,10.1021/acs.jced.0c00776
O=C(O)[C@@H]1C[C@@H](O)CN1,283.15,ethanol,CCO,7e-05,0.0012120060889881687,-2.9164951983155087,L-hydroxyproline,51-35-4,5810,No,10.1021/acs.jced.0c00794
O=C(O)[C@@H]1C[C@@H](O)CN1,288.15,ethanol,CCO,0.000109,0.0018771652570005535,-2.7264974924057266,L-hydroxyproline,51-35-4,5810,No,10.1021/acs.jced.0c00794
O=C(O)[C@@H]1C[C@@H](O)CN1,293.15,ethanol,CCO,0.000145,0.0024854316936799353,-2.604598167936576,L-hydroxyproline,51-35-4,5810,No,10.1021/acs.jced.0c00794
O=C(O)[C@@H]1C[C@@H](O)CN1,298.15,ethanol,CCO,0.000188,0.0032058131380717195,-2.494061795603031,L-hydroxyproline,51-35-4,5810,No,10.1021/acs.jced.0c00794
O=C(O)[C@@H]1C[C@@H](O)CN1,303.15,ethanol,CCO,0.000226,0.0038317153457748973,-2.4166067616892764,L-hydroxyproline,51-35-4,5810,No,10.1021/acs.jced.0c00794
O=C(O)[C@@H]1C[C@@H](O)CN1,308.15,ethanol,CCO,0.000273,0.004602120300351037,-2.3370420329738155,L-hydroxyproline,51-35-4,5810,No,10.1021/acs.jced.0c00794
O=C(O)[C@@H]1C[C@@H](O)CN1,313.15,ethanol,CCO,0.000313,0.005247863829216932,-2.280017442494235,L-hydroxyproline,51-35-4,5810,No,10.1021/acs.jced.0c00794
O=C(O)[C@@H]1C[C@@H](O)CN1,318.15,ethanol,CCO,0.000378,0.006301014269447379,-2.2005895368687267,L-hydroxyproline,51-35-4,5810,No,10.1021/acs.jced.0c00794
O=C(O)[C@@H]1C[C@@H](O)CN1,323.15,ethanol,CCO,0.000431,0.007143220689088583,-2.146105932183616,L-hydroxyproline,51-35-4,5810,No,10.1021/acs.jced.0c00794
O=C(O)[C@@H]1C[C@@H](O)CN1,328.15,ethanol,CCO,0.000512,0.00843522030667316,-2.073903570250548,L-hydroxyproline,51-35-4,5810,No,10.1021/acs.jced.0c00794
O=C(O)[C@@H]1C[C@@H](O)CN1,333.15,ethanol,CCO,0.000573,0.00938850492535418,-2.0274035615533936,L-hydroxyproline,51-35-4,5810,No,10.1021/acs.jced.0c00794
COC(=O)[C@@H](N)CS.Cl,283.15,ethanol,CCO,0.02315,0.41029807038964755,-0.38690052549250453,L-cysteine methyl ester hydrochloride,18598-63-5,2733208,No,10.1021/acs.jced.0c00795
COC(=O)[C@@H](N)CS.Cl,288.15,ethanol,CCO,0.02566,0.4534973867611751,-0.3434252111804492,L-cysteine methyl ester hydrochloride,18598-63-5,2733208,No,10.1021/acs.jced.0c00795
COC(=O)[C@@H](N)CS.Cl,293.15,ethanol,CCO,0.02897,0.5113128415526327,-0.2913132998895126,L-cysteine methyl ester hydrochloride,18598-63-5,2733208,No,10.1021/acs.jced.0c00795
COC(=O)[C@@H](N)CS.Cl,298.15,ethanol,CCO,0.03369,0.5944060719405239,-0.2259167628464125,L-cysteine methyl ester hydrochloride,18598-63-5,2733208,No,10.1021/acs.jced.0c00795
COC(=O)[C@@H](N)CS.Cl,303.15,ethanol,CCO,0.04285,0.7588526587822456,-0.11984253990112663,L-cysteine methyl ester hydrochloride,18598-63-5,2733208,No,10.1021/acs.jced.0c00795
COC(=O)[C@@H](N)CS.Cl,308.15,ethanol,CCO,0.04715,0.8339382619411913,-0.07886609983076256,L-cysteine methyl ester hydrochloride,18598-63-5,2733208,No,10.1021/acs.jced.0c00795
COC(=O)[C@@H](N)CS.Cl,313.15,ethanol,CCO,0.05355,0.9483399892409307,-0.023035935889664565,L-cysteine methyl ester hydrochloride,18598-63-5,2733208,No,10.1021/acs.jced.0c00795
COC(=O)[C@@H](N)CS.Cl,318.15,ethanol,CCO,0.06221,1.1053735616439153,0.04350907290228713,L-cysteine methyl ester hydrochloride,18598-63-5,2733208,No,10.1021/acs.jced.0c00795
COC(=O)[C@@H](N)CS.Cl,323.15,ethanol,CCO,0.07225,1.2901388839730807,0.11063646479263432,L-cysteine methyl ester hydrochloride,18598-63-5,2733208,No,10.1021/acs.jced.0c00795
COC(=O)[C@@H](N)CS.Cl,328.15,ethanol,CCO,0.08636,1.5564729647771032,0.19214158158770173,L-cysteine methyl ester hydrochloride,18598-63-5,2733208,No,10.1021/acs.jced.0c00795
COC(=O)[C@@H](N)CS.Cl,333.15,ethanol,CCO,0.10001,1.8196951508813846,0.25999863777669247,L-cysteine methyl ester hydrochloride,18598-63-5,2733208,No,10.1021/acs.jced.0c00795
CC(=O)O[C@]1(C(C)=O)CC[C@H]2[C@@H]3C=C(Cl)C4=CC(=O)[C@@H]5C[C@@H]5[C@]4(C)[C@H]3CC[C@@]21C,273.15,ethanol,CCO,0.00032823,0.005751576332962165,-2.24021311202594,Cyproterone acetate,427-51-0,9880,Yes,10.1021/acs.jced.0c00803
CC(=O)O[C@]1(C(C)=O)CC[C@H]2[C@@H]3C=C(Cl)C4=CC(=O)[C@@H]5C[C@@H]5[C@]4(C)[C@H]3CC[C@@]21C,278.15,ethanol,CCO,0.00032968,0.005745715934723472,-2.2406558491118527,Cyproterone acetate,427-51-0,9880,Yes,10.1021/acs.jced.0c00803
CC(=O)O[C@]1(C(C)=O)CC[C@H]2[C@@H]3C=C(Cl)C4=CC(=O)[C@@H]5C[C@@H]5[C@]4(C)[C@H]3CC[C@@]21C,283.15,ethanol,CCO,0.00033044,0.00572285187881494,-2.242387494532953,Cyproterone acetate,427-51-0,9880,Yes,10.1021/acs.jced.0c00803
CC(=O)O[C@]1(C(C)=O)CC[C@H]2[C@@H]3C=C(Cl)C4=CC(=O)[C@@H]5C[C@@H]5[C@]4(C)[C@H]3CC[C@@]21C,288.15,ethanol,CCO,0.00033129,0.005706645530829213,-2.24361910288225,Cyproterone acetate,427-51-0,9880,Yes,10.1021/acs.jced.0c00803
CC(=O)O[C@]1(C(C)=O)CC[C@H]2[C@@H]3C=C(Cl)C4=CC(=O)[C@@H]5C[C@@H]5[C@]4(C)[C@H]3CC[C@@]21C,293.15,ethanol,CCO,0.00033197,0.0056913315684498965,-2.2447861123088217,Cyproterone acetate,427-51-0,9880,Yes,10.1021/acs.jced.0c00803
CC(=O)O[C@]1(C(C)=O)CC[C@H]2[C@@H]3C=C(Cl)C4=CC(=O)[C@@H]5C[C@@H]5[C@]4(C)[C@H]3CC[C@@]21C,298.15,ethanol,CCO,0.00033258,0.005672040076584426,-2.2462607092463616,Cyproterone acetate,427-51-0,9880,Yes,10.1021/acs.jced.0c00803
CC(=O)O[C@]1(C(C)=O)CC[C@H]2[C@@H]3C=C(Cl)C4=CC(=O)[C@@H]5C[C@@H]5[C@]4(C)[C@H]3CC[C@@]21C,303.15,ethanol,CCO,0.00033295,0.005645602271597759,-2.2482897208286037,Cyproterone acetate,427-51-0,9880,Yes,10.1021/acs.jced.0c00803
CC(=O)O[C@]1(C(C)=O)CC[C@H]2[C@@H]3C=C(Cl)C4=CC(=O)[C@@H]5C[C@@H]5[C@]4(C)[C@H]3CC[C@@]21C,308.15,ethanol,CCO,0.00033315,0.0056164418701758504,-2.25053873167775,Cyproterone acetate,427-51-0,9880,Yes,10.1021/acs.jced.0c00803
CC(=O)O[C@]1(C(C)=O)CC[C@H]2[C@@H]3C=C(Cl)C4=CC(=O)[C@@H]5C[C@@H]5[C@]4(C)[C@H]3CC[C@@]21C,313.15,ethanol,CCO,0.00033328,0.0055879985262305394,-2.252743717097947,Cyproterone acetate,427-51-0,9880,Yes,10.1021/acs.jced.0c00803
CC(=O)O[C@]1(C(C)=O)CC[C@H]2[C@@H]3C=C(Cl)C4=CC(=O)[C@@H]5C[C@@H]5[C@]4(C)[C@H]3CC[C@@]21C,318.15,ethanol,CCO,0.00033351,0.005559147471547608,-2.2549918049630846,Cyproterone acetate,427-51-0,9880,Yes,10.1021/acs.jced.0c00803
OCC(O)COc1ccc(Cl)cc1,288.15,ethanol,CCO,0.06239,1.1458332590814557,0.059121423975661634,Chlorphenesin,104-29-0,7697,No,10.1021/acs.jced.0c00900
OCC(O)COc1ccc(Cl)cc1,293.15,ethanol,CCO,0.07233,1.3362748834888236,0.12589580552180485,Chlorphenesin,104-29-0,7697,No,10.1021/acs.jced.0c00900
OCC(O)COc1ccc(Cl)cc1,298.15,ethanol,CCO,0.09229,1.7334296710876038,0.23890622610307605,Chlorphenesin,104-29-0,7697,No,10.1021/acs.jced.0c00900
OCC(O)COc1ccc(Cl)cc1,303.15,ethanol,CCO,0.1215,2.3443429792333594,0.3700211496207462,Chlorphenesin,104-29-0,7697,No,10.1021/acs.jced.0c00900
OCC(O)COc1ccc(Cl)cc1,308.15,ethanol,CCO,0.146,2.881188857178543,0.4595717265005881,Chlorphenesin,104-29-0,7697,No,10.1021/acs.jced.0c00900
OCC(O)COc1ccc(Cl)cc1,313.15,ethanol,CCO,0.2014,4.227001723121898,0.6260324248676229,Chlorphenesin,104-29-0,7697,No,10.1021/acs.jced.0c00900
OCC(O)COc1ccc(Cl)cc1,318.15,ethanol,CCO,0.2598,5.848500547816714,0.7670445349231173,Chlorphenesin,104-29-0,7697,No,10.1021/acs.jced.0c00900
OCC(O)COc1ccc(Cl)cc1,323.15,ethanol,CCO,0.3245,7.95827466922424,0.9008189241632083,Chlorphenesin,104-29-0,7697,No,10.1021/acs.jced.0c00900
OCC(O)COc1ccc(Cl)cc1,328.15,ethanol,CCO,0.3947,10.737433954943938,1.030900505538566,Chlorphenesin,104-29-0,7697,No,10.1021/acs.jced.0c00900
CCn1c2ccccc2c2cc(-n3nncc3-c3ccccc3)ccc21,279.2,ethanol,CCO,0.000406,0.007068284050681422,-2.150686005972752,MBQ-167,2097938-73-1,129896932,No,10.1021/acs.jced.0c00908
CCn1c2ccccc2c2cc(-n3nncc3-c3ccccc3)ccc21,281.5,ethanol,CCO,0.000428,0.00743277843640122,-2.128848812882843,MBQ-167,2097938-73-1,129896932,No,10.1021/acs.jced.0c00908
CCn1c2ccccc2c2cc(-n3nncc3-c3ccccc3)ccc21,285.8,ethanol,CCO,0.000529,0.009144534262053592,-2.038838408566008,MBQ-167,2097938-73-1,129896932,No,10.1021/acs.jced.0c00908
CCn1c2ccccc2c2cc(-n3nncc3-c3ccccc3)ccc21,288.8,ethanol,CCO,0.000598,0.010303964376078703,-1.9869956514690446,MBQ-167,2097938-73-1,129896932,No,10.1021/acs.jced.0c00908
CCn1c2ccccc2c2cc(-n3nncc3-c3ccccc3)ccc21,291.9,ethanol,CCO,0.000685,0.011763757560226186,-1.9294539344659645,MBQ-167,2097938-73-1,129896932,No,10.1021/acs.jced.0c00908
CCn1c2ccccc2c2cc(-n3nncc3-c3ccccc3)ccc21,297.2,ethanol,CCO,0.000847,0.014462980353488955,-1.83974220374251,MBQ-167,2097938-73-1,129896932,No,10.1021/acs.jced.0c00908
CCn1c2ccccc2c2cc(-n3nncc3-c3ccccc3)ccc21,307.8,ethanol,CCO,0.00136,0.022960845782395996,-1.6390121183706607,MBQ-167,2097938-73-1,129896932,No,10.1021/acs.jced.0c00908
CCn1c2ccccc2c2cc(-n3nncc3-c3ccccc3)ccc21,313.0,ethanol,CCO,0.0017,0.02854286968802566,-1.5445023652430427,MBQ-167,2097938-73-1,129896932,No,10.1021/acs.jced.0c00908
CCn1c2ccccc2c2cc(-n3nncc3-c3ccccc3)ccc21,318.9,ethanol,CCO,0.00222,0.037044059812500876,-1.4312814232442215,MBQ-167,2097938-73-1,129896932,No,10.1021/acs.jced.0c00908
CCn1c2ccccc2c2cc(-n3nncc3-c3ccccc3)ccc21,323.2,ethanol,CCO,0.00274,0.04552079225227537,-1.3417901880058385,MBQ-167,2097938-73-1,129896932,No,10.1021/acs.jced.0c00908
CCn1c2ccccc2c2cc(-n3nncc3-c3ccccc3)ccc21,329.0,ethanol,CCO,0.00376,0.062115229923676796,-1.2068019028689023,MBQ-167,2097938-73-1,129896932,No,10.1021/acs.jced.0c00908
CC(=O)NCC(=O)O,283.15,ethanol,CCO,0.002765,0.048003619325631984,-1.3187260169183244,N-acetylglycine,543-24-8,10972,No,10.1021/acs.jced.0c00983
CC(=O)NCC(=O)O,288.15,ethanol,CCO,0.003395,0.05866044941040612,-1.231654614118647,N-acetylglycine,543-24-8,10972,No,10.1021/acs.jced.0c00983
CC(=O)NCC(=O)O,293.15,ethanol,CCO,0.004148,0.07138628809985122,-1.1463851996307413,N-acetylglycine,543-24-8,10972,No,10.1021/acs.jced.0c00983
CC(=O)NCC(=O)O,298.15,ethanol,CCO,0.004967,0.08510505874870457,-1.0700446241533599,N-acetylglycine,543-24-8,10972,No,10.1021/acs.jced.0c00983
CC(=O)NCC(=O)O,303.15,ethanol,CCO,0.006215,0.10600719259994436,-0.9746646668060595,N-acetylglycine,543-24-8,10972,No,10.1021/acs.jced.0c00983
CC(=O)NCC(=O)O,308.15,ethanol,CCO,0.006972,0.11832394081854082,-0.9269273744468848,N-acetylglycine,543-24-8,10972,No,10.1021/acs.jced.0c00983
CC(=O)NCC(=O)O,313.15,ethanol,CCO,0.008354,0.14120174733474852,-0.8501599289701642,N-acetylglycine,543-24-8,10972,No,10.1021/acs.jced.0c00983
CC(=O)NCC(=O)O,318.15,ethanol,CCO,0.009538,0.16046265324158795,-0.7946260310375857,N-acetylglycine,543-24-8,10972,No,10.1021/acs.jced.0c00983
CC(=O)NCC(=O)O,323.15,ethanol,CCO,0.010924,0.18297072294697062,-0.7376183959513857,N-acetylglycine,543-24-8,10972,No,10.1021/acs.jced.0c00983
CC(=O)NCC(=O)O,328.15,ethanol,CCO,0.012735,0.21240721342114618,-0.6728307385519423,N-acetylglycine,543-24-8,10972,No,10.1021/acs.jced.0c00983
CC(=O)NCC(=O)O,333.15,ethanol,CCO,0.014078,0.2338251909381774,-0.6311087023439711,N-acetylglycine,543-24-8,10972,No,10.1021/acs.jced.0c00983
O=C(O)[C@@H]1CSCN1,283.15,ethanol,CCO,9e-05,0.0015583247116608295,-2.8073420423058755,L-thioproline,34592-47-7,93176,No,10.1021/acs.jced.0c00996
O=C(O)[C@@H]1CSCN1,293.15,ethanol,CCO,0.000125,0.002142570671406643,-2.669064844225886,L-thioproline,34592-47-7,93176,No,10.1021/acs.jced.0c00996
O=C(O)[C@@H]1CSCN1,303.15,ethanol,CCO,0.00018,0.003051668274002663,-2.5154626773358073,L-thioproline,34592-47-7,93176,No,10.1021/acs.jced.0c00996
O=C(O)[C@@H]1CSCN1,313.15,ethanol,CCO,0.000254,0.004258398556399301,-2.370753694061472,L-thioproline,34592-47-7,93176,No,10.1021/acs.jced.0c00996
O=C(O)[C@@H]1CSCN1,323.15,ethanol,CCO,0.000348,0.005767133186056664,-2.239040018885345,L-thioproline,34592-47-7,93176,No,10.1021/acs.jced.0c00996
O=C(O)c1cccc(O)c1O,278.15,ethanol,CCO,0.08376,1.5927065588789933,0.20213576852009554,"2,3-dihydroxybenzoic acid",303-38-8,19,No,10.1021/acs.jced.0c01032
O=C(O)c1cccc(O)c1O,283.15,ethanol,CCO,0.08548,1.6182576390905237,0.20904766581017853,"2,3-dihydroxybenzoic acid",303-38-8,19,No,10.1021/acs.jced.0c01032
O=C(O)c1cccc(O)c1O,288.15,ethanol,CCO,0.08843,1.6704684208470475,0.22283826998821593,"2,3-dihydroxybenzoic acid",303-38-8,19,No,10.1021/acs.jced.0c01032
O=C(O)c1cccc(O)c1O,293.15,ethanol,CCO,0.09066,1.7086781743910309,0.23266027205503237,"2,3-dihydroxybenzoic acid",303-38-8,19,No,10.1021/acs.jced.0c01032
O=C(O)c1cccc(O)c1O,298.15,ethanol,CCO,0.0944,1.777191717416961,0.24973428054875013,"2,3-dihydroxybenzoic acid",303-38-8,19,No,10.1021/acs.jced.0c01032
O=C(O)c1cccc(O)c1O,303.15,ethanol,CCO,0.09733,1.8276976433587746,0.26190435185638394,"2,3-dihydroxybenzoic acid",303-38-8,19,No,10.1021/acs.jced.0c01032
O=C(O)c1cccc(O)c1O,308.15,ethanol,CCO,0.101,1.893382782140568,0.27723842345456995,"2,3-dihydroxybenzoic acid",303-38-8,19,No,10.1021/acs.jced.0c01032
O=C(O)c1cccc(O)c1O,313.15,ethanol,CCO,0.1055,1.9768530142384142,0.29597437923866216,"2,3-dihydroxybenzoic acid",303-38-8,19,No,10.1021/acs.jced.0c01032
O=C(O)c1cccc(O)c1O,318.15,ethanol,CCO,0.1104,2.0678963569034936,0.3155287681003991,"2,3-dihydroxybenzoic acid",303-38-8,19,No,10.1021/acs.jced.0c01032
O[C@H]1[C@H](O)[C@@H](O)[C@H](O)[C@@H](O)[C@H]1O,283.15,ethanol,CCO,4.124e-05,0.0007140241933676543,-3.1462870727223367,Myo-inositol,87-89-8,892,No,10.1021/acs.jced.0c01067
O[C@H]1[C@H](O)[C@@H](O)[C@H](O)[C@@H](O)[C@H]1O,288.15,ethanol,CCO,4.179e-05,0.0007196464538034632,-3.1428808103357295,Myo-inositol,87-89-8,892,No,10.1021/acs.jced.0c01067
O[C@H]1[C@H](O)[C@@H](O)[C@H](O)[C@@H](O)[C@H]1O,293.15,ethanol,CCO,4.56e-05,0.0007815477182824808,-3.1070445004930383,Myo-inositol,87-89-8,892,No,10.1021/acs.jced.0c01067
O[C@H]1[C@H](O)[C@@H](O)[C@H](O)[C@@H](O)[C@H]1O,298.15,ethanol,CCO,4.923e-05,0.0008393631847074702,-3.076050083288729,Myo-inositol,87-89-8,892,No,10.1021/acs.jced.0c01067
O[C@H]1[C@H](O)[C@@H](O)[C@H](O)[C@@H](O)[C@H]1O,303.15,ethanol,CCO,5.713e-05,0.0009684465882882738,-3.0139243264692106,Myo-inositol,87-89-8,892,No,10.1021/acs.jced.0c01067
O[C@H]1[C@H](O)[C@@H](O)[C@H](O)[C@@H](O)[C@H]1O,308.15,ethanol,CCO,6.029e-05,0.001016127510781032,-2.9930517903258407,Myo-inositol,87-89-8,892,No,10.1021/acs.jced.0c01067
O[C@H]1[C@H](O)[C@@H](O)[C@H](O)[C@@H](O)[C@H]1O,313.15,ethanol,CCO,6.5e-05,0.0010895416863741356,-2.9627561487899916,Myo-inositol,87-89-8,892,No,10.1021/acs.jced.0c01067
O[C@H]1[C@H](O)[C@@H](O)[C@H](O)[C@@H](O)[C@H]1O,318.15,ethanol,CCO,7.218e-05,0.0012028256899142334,-2.9197973048242254,Myo-inositol,87-89-8,892,No,10.1021/acs.jced.0c01067
O[C@H]1[C@H](O)[C@@H](O)[C@H](O)[C@@H](O)[C@H]1O,323.15,ethanol,CCO,7.743e-05,0.0012828399150696351,-2.8918275356279124,Myo-inositol,87-89-8,892,No,10.1021/acs.jced.0c01067
N=C(N)NCCC[C@H](N)C(=O)O.O=C1CC[C@@H](C(=O)O)N1,283.15,ethanol,CCO,9e-05,0.0015583247116608295,-2.8073420423058755,L-arginine L-pyroglutamate,56265-06-6,198346,No,10.1021/acs.jced.0c01074
N=C(N)NCCC[C@H](N)C(=O)O.O=C1CC[C@@H](C(=O)O)N1,293.15,ethanol,CCO,0.00012,0.0020568575589768857,-2.6867957829247655,L-arginine L-pyroglutamate,56265-06-6,198346,No,10.1021/acs.jced.0c01074
N=C(N)NCCC[C@H](N)C(=O)O.O=C1CC[C@@H](C(=O)O)N1,303.15,ethanol,CCO,0.000146,0.0024751578739504194,-2.606397095074315,L-arginine L-pyroglutamate,56265-06-6,198346,No,10.1021/acs.jced.0c01074
N=C(N)NCCC[C@H](N)C(=O)O.O=C1CC[C@@H](C(=O)O)N1,313.15,ethanol,CCO,0.00018,0.0030175394018556235,-2.520347050345194,L-arginine L-pyroglutamate,56265-06-6,198346,No,10.1021/acs.jced.0c01074
N=C(N)NCCC[C@H](N)C(=O)O.O=C1CC[C@@H](C(=O)O)N1,323.15,ethanol,CCO,0.000214,0.0035459801382366346,-2.4502637013009183,L-arginine L-pyroglutamate,56265-06-6,198346,No,10.1021/acs.jced.0c01074
O=C(Nc1ccccc1)c1ccccc1O,283.15,ethanol,CCO,0.0184918,0.3261832197800672,-0.48653838463348004,Salicylanilide,87-17-2,6872,No,10.1021/acs.jced.0c01078
O=C(Nc1ccccc1)c1ccccc1O,288.15,ethanol,CCO,0.020741,0.364721015822454,-0.4380392112056554,Salicylanilide,87-17-2,6872,No,10.1021/acs.jced.0c01078
O=C(Nc1ccccc1)c1ccccc1O,293.15,ethanol,CCO,0.0235181,0.4127707244408333,-0.38429111240958713,Salicylanilide,87-17-2,6872,No,10.1021/acs.jced.0c01078
O=C(Nc1ccccc1)c1ccccc1O,298.15,ethanol,CCO,0.0272677,0.47791853091603415,-0.32064612972496626,Salicylanilide,87-17-2,6872,No,10.1021/acs.jced.0c01078
O=C(Nc1ccccc1)c1ccccc1O,303.15,ethanol,CCO,0.0322275,0.5644688459859382,-0.248360022542843,Salicylanilide,87-17-2,6872,No,10.1021/acs.jced.0c01078
O=C(Nc1ccccc1)c1ccccc1O,308.15,ethanol,CCO,0.0366131,0.6404902258933278,-0.19348749335564458,Salicylanilide,87-17-2,6872,No,10.1021/acs.jced.0c01078
O=C(Nc1ccccc1)c1ccccc1O,313.15,ethanol,CCO,0.0424526,0.7430983154372539,-0.12895372321493428,Salicylanilide,87-17-2,6872,No,10.1021/acs.jced.0c01078
O=C(Nc1ccccc1)c1ccccc1O,318.15,ethanol,CCO,0.0486833,0.8527257103255825,-0.06919064251195335,Salicylanilide,87-17-2,6872,No,10.1021/acs.jced.0c01078
O=C(Nc1ccccc1)c1ccccc1O,323.15,ethanol,CCO,0.0572212,1.0054876241640558,0.002376729542073111,Salicylanilide,87-17-2,6872,No,10.1021/acs.jced.0c01078
Cn1c(=O)c2c(ncn2CC2OCCO2)n(C)c1=O,283.15,ethanol,CCO,0.00072,0.012474457308756542,-1.9039783389261389,Doxofylline,69975-86-6,50942,No,10.1021/acs.jced.0c01088
Cn1c(=O)c2c(ncn2CC2OCCO2)n(C)c1=O,288.15,ethanol,CCO,0.00097,0.01671944562930551,-1.7767781266652425,Doxofylline,69975-86-6,50942,No,10.1021/acs.jced.0c01088
Cn1c(=O)c2c(ncn2CC2OCCO2)n(C)c1=O,293.25,ethanol,CCO,0.00133,0.022821229794793795,-1.641660955943137,Doxofylline,69975-86-6,50942,No,10.1021/acs.jced.0c01088
Cn1c(=O)c2c(ncn2CC2OCCO2)n(C)c1=O,298.2,ethanol,CCO,0.00174,0.02970495217532617,-1.5271711424964731,Doxofylline,69975-86-6,50942,No,10.1021/acs.jced.0c01088
Cn1c(=O)c2c(ncn2CC2OCCO2)n(C)c1=O,303.16,ethanol,CCO,0.00233,0.039581123294923914,-1.4025118848677582,Doxofylline,69975-86-6,50942,No,10.1021/acs.jced.0c01088
Cn1c(=O)c2c(ncn2CC2OCCO2)n(C)c1=O,308.04,ethanol,CCO,0.00311,0.05258402212739319,-1.2791461979762293,Doxofylline,69975-86-6,50942,No,10.1021/acs.jced.0c01088
Cn1c(=O)c2c(ncn2CC2OCCO2)n(C)c1=O,313.14,ethanol,CCO,0.0042,0.07068351559083279,-1.1506818580938338,Doxofylline,69975-86-6,50942,No,10.1021/acs.jced.0c01088
Cn1c(=O)c2c(ncn2CC2OCCO2)n(C)c1=O,318.15,ethanol,CCO,0.00556,0.09316454679142384,-1.0307493243640664,Doxofylline,69975-86-6,50942,No,10.1021/acs.jced.0c01088
Cn1c(=O)c2c(ncn2CC2OCCO2)n(C)c1=O,323.07,ethanol,CCO,0.0073862,0.12330282747357661,-0.9090269644254141,Doxofylline,69975-86-6,50942,No,10.1021/acs.jced.0c01088
NC1CCSC1=O,283.15,ethanol,CCO,0.003194,0.055475423759299126,-1.2558993716444469,DL-homocysteine thiolactone hydrochloride,10593-85-8,107712,No,10.1021/acs.jced.0c01089
NC1CCSC1=O,293.15,ethanol,CCO,0.004132,0.07110978865874165,-1.148070612099132,DL-homocysteine thiolactone hydrochloride,10593-85-8,107712,No,10.1021/acs.jced.0c01089
NC1CCSC1=O,303.15,ethanol,CCO,0.005089,0.08670314596105806,-1.06196514417615,DL-homocysteine thiolactone hydrochloride,10593-85-8,107712,No,10.1021/acs.jced.0c01089
NC1CCSC1=O,313.15,ethanol,CCO,0.006267,0.10570420081501625,-0.9759077529524716,DL-homocysteine thiolactone hydrochloride,10593-85-8,107712,No,10.1021/acs.jced.0c01089
NC1CCSC1=O,323.15,ethanol,CCO,0.007664,0.12794588582788569,-0.892973674536262,DL-homocysteine thiolactone hydrochloride,10593-85-8,107712,No,10.1021/acs.jced.0c01089