SMILES_Solute,Temperature_K,Solvent,SMILES_Solvent,Solubility(mole_fraction),Solubility(mol/L),LogS(mol/L),Compound_Name,CAS,PubChem_CID,FDA_Approved,Source
CC(C)(Oc1ccc(CCNC(=O)c2ccc(Cl)cc2)cc1)C(=O)O,323.24,ethanol,CCO,0.0097198,0.16260990396268404,-0.7888530066795038,Bezafibrate,41859-67-0,39042,Yes,10.1021/acs.jced.0c00025
N[C@@H](CS)C(=O)O,283.15,ethanol,CCO,0.000323,0.0055939577524327,-2.252280817899178,L-cysteine,52-90-4,5862,Yes,10.1021/acs.jced.0c00031
N[C@@H](CS)C(=O)O,293.15,ethanol,CCO,0.000332,0.005691846062685947,-2.2447468540252244,L-cysteine,52-90-4,5862,Yes,10.1021/acs.jced.0c00031
N[C@@H](CS)C(=O)O,303.15,ethanol,CCO,0.00035,0.00593480852075821,-2.2265932884565838,L-cysteine,52-90-4,5862,Yes,10.1021/acs.jced.0c00031
N[C@@H](CS)C(=O)O,313.15,ethanol,CCO,0.000375,0.006287766755790275,-2.201503576789258,L-cysteine,52-90-4,5862,Yes,10.1021/acs.jced.0c00031
N[C@@H](CS)C(=O)O,323.15,ethanol,CCO,0.000393,0.006513176361980405,-2.186207161961352,L-cysteine,52-90-4,5862,Yes,10.1021/acs.jced.0c00031
COc1ccccc1OCCNCC(O)COc1cccc2[nH]c3ccccc3c12,278.15,ethanol,CCO,0.00062,0.010808598461592017,-1.9662306168569115,Carvedilol,72956-09-3,2585,Yes,10.1021/acs.jced.0c00040
COc1ccccc1OCCNCC(O)COc1cccc2[nH]c3ccccc3c12,283.15,ethanol,CCO,0.00085,0.014728705989772002,-1.8318354070058174,Carvedilol,72956-09-3,2585,Yes,10.1021/acs.jced.0c00040
COc1ccccc1OCCNCC(O)COc1cccc2[nH]c3ccccc3c12,288.15,ethanol,CCO,0.00112,0.01930782589808884,-1.714266625942024,Carvedilol,72956-09-3,2585,Yes,10.1021/acs.jced.0c00040
COc1ccccc1OCCNCC(O)COc1cccc2[nH]c3ccccc3c12,293.15,ethanol,CCO,0.00143,0.024543041153681645,-1.6100716243950357,Carvedilol,72956-09-3,2585,Yes,10.1021/acs.jced.0c00040
COc1ccccc1OCCNCC(O)COc1cccc2[nH]c3ccccc3c12,298.15,ethanol,CCO,0.00185,0.03159909302221483,-1.5003253826062852,Carvedilol,72956-09-3,2585,Yes,10.1021/acs.jced.0c00040
COc1ccccc1OCCNCC(O)COc1cccc2[nH]c3ccccc3c12,303.15,ethanol,CCO,0.00246,0.04180145755967917,-1.3788085747060776,Carvedilol,72956-09-3,2585,Yes,10.1021/acs.jced.0c00040
COc1ccccc1OCCNCC(O)COc1cccc2[nH]c3ccccc3c12,308.15,ethanol,CCO,0.00306,0.05172841201702728,-1.2862708535613008,Carvedilol,72956-09-3,2585,Yes,10.1021/acs.jced.0c00040
COc1ccccc1OCCNCC(O)COc1cccc2[nH]c3ccccc3c12,313.15,ethanol,CCO,0.00389,0.0654552620367072,-1.1840554341912248,Carvedilol,72956-09-3,2585,Yes,10.1021/acs.jced.0c00040
CN1CCN(C(=O)O[C@H]2c3nccnc3C(=O)N2c2ccc(Cl)cn2)CC1,288.15,ethanol,CCO,0.0002,0.0034446534187342797,-2.4628544677775817,Eszopiclone,138729-47-2,969472,Yes,10.1021/acs.jced.0c00047
CN1CCN(C(=O)O[C@H]2c3nccnc3C(=O)N2c2ccc(Cl)cn2)CC1,293.15,ethanol,CCO,0.0003,0.005143069761102851,-2.2887775848259944,Eszopiclone,138729-47-2,969472,Yes,10.1021/acs.jced.0c00047
CN1CCN(C(=O)O[C@H]2c3nccnc3C(=O)N2c2ccc(Cl)cn2)CC1,298.15,ethanol,CCO,0.0004,0.00682232562216751,-2.1660675560315727,Eszopiclone,138729-47-2,969472,Yes,10.1021/acs.jced.0c00047
CN1CCN(C(=O)O[C@H]2c3nccnc3C(=O)N2c2ccc(Cl)cn2)CC1,303.15,ethanol,CCO,0.0004,0.006782977577060477,-2.168579618608721,Eszopiclone,138729-47-2,969472,Yes,10.1021/acs.jced.0c00047
CN1CCN(C(=O)O[C@H]2c3nccnc3C(=O)N2c2ccc(Cl)cn2)CC1,308.15,ethanol,CCO,0.0005,0.008430706051760387,-2.074136052712961,Eszopiclone,138729-47-2,969472,Yes,10.1021/acs.jced.0c00047
CN1CCN(C(=O)O[C@H]2c3nccnc3C(=O)N2c2ccc(Cl)cn2)CC1,313.15,ethanol,CCO,0.0007,0.011740981861382428,-1.93029558288824,Eszopiclone,138729-47-2,969472,Yes,10.1021/acs.jced.0c00047
CN1CCN(C(=O)O[C@H]2c3nccnc3C(=O)N2c2ccc(Cl)cn2)CC1,318.15,ethanol,CCO,0.0009,0.01501025324233126,-1.823611980586891,Eszopiclone,138729-47-2,969472,Yes,10.1021/acs.jced.0c00047
CN1CCN(C(=O)O[C@H]2c3nccnc3C(=O)N2c2ccc(Cl)cn2)CC1,323.15,ethanol,CCO,0.001,0.016583037703530878,-1.7803359118411126,Eszopiclone,138729-47-2,969472,Yes,10.1021/acs.jced.0c00047
CN1CCN(C(=O)O[C@H]2c3nccnc3C(=O)N2c2ccc(Cl)cn2)CC1,328.15,ethanol,CCO,0.0012,0.01978366572827113,-1.7036932345760827,Eszopiclone,138729-47-2,969472,Yes,10.1021/acs.jced.0c00047
O=C(O)c1cc([N+](=O)[O-])cc([N+](=O)[O-])c1O,278.15,ethanol,CCO,0.04651,0.8498426925696174,-0.07066145554624531,"3,5-dinitrosalicylic acid",609-99-4,11873,No,10.1021/acs.jced.0c00122
O=C(O)c1cc([N+](=O)[O-])cc([N+](=O)[O-])c1O,283.15,ethanol,CCO,0.05177,0.9452372621779768,-0.024459166388690258,"3,5-dinitrosalicylic acid",609-99-4,11873,No,10.1021/acs.jced.0c00122
O=C(O)c1cc([N+](=O)[O-])cc([N+](=O)[O-])c1O,288.15,ethanol,CCO,0.05817,1.063543390367155,0.02675521291539642,"3,5-dinitrosalicylic acid",609-99-4,11873,No,10.1021/acs.jced.0c00122
O=C(O)c1cc([N+](=O)[O-])cc([N+](=O)[O-])c1O,293.15,ethanol,CCO,0.06589,1.2089054590255222,0.08239233871936794,"3,5-dinitrosalicylic acid",609-99-4,11873,No,10.1021/acs.jced.0c00122
O=C(O)c1cc([N+](=O)[O-])cc([N+](=O)[O-])c1O,298.15,ethanol,CCO,0.07556,1.393515874587244,0.14411192045253338,"3,5-dinitrosalicylic acid",609-99-4,11873,No,10.1021/acs.jced.0c00122
O=C(O)c1cc([N+](=O)[O-])cc([N+](=O)[O-])c1O,303.15,ethanol,CCO,0.08624,1.5997909753414383,0.2040632425396961,"3,5-dinitrosalicylic acid",609-99-4,11873,No,10.1021/acs.jced.0c00122
O=C(O)c1cc([N+](=O)[O-])cc([N+](=O)[O-])c1O,308.15,ethanol,CCO,0.09769,1.8246143262501227,0.26117108047348925,"3,5-dinitrosalicylic acid",609-99-4,11873,No,10.1021/acs.jced.0c00122
O=C(O)c1cc([N+](=O)[O-])cc([N+](=O)[O-])c1O,313.15,ethanol,CCO,0.1096,2.06313509799626,0.31452766733004095,"3,5-dinitrosalicylic acid",609-99-4,11873,No,10.1021/acs.jced.0c00122
O=C(O)c1cc([N+](=O)[O-])cc([N+](=O)[O-])c1O,318.15,ethanol,CCO,0.1238,2.354354547394493,0.3718718647871438,"3,5-dinitrosalicylic acid",609-99-4,11873,No,10.1021/acs.jced.0c00122
O=C(O)c1cc([N+](=O)[O-])cc([N+](=O)[O-])c1O,323.15,ethanol,CCO,0.1399,2.6946250526092843,0.43049834321055025,"3,5-dinitrosalicylic acid",609-99-4,11873,No,10.1021/acs.jced.0c00122
CCCSc1nc(N[C@@H]2C[C@H]2c2ccc(F)c(F)c2)c2nnn([C@@H]3C[C@H](OCCO)[C@@H](O)[C@H]3O)c2n1,273.15,ethanol,CCO,0.003151,0.05537134450188728,-1.2567149310182928,Ticagrelor,274693-27-5,9871419,Yes,10.1021/acs.jced.0c00127
CCCSc1nc(N[C@@H]2C[C@H]2c2ccc(F)c(F)c2)c2nnn([C@@H]3C[C@H](OCCO)[C@@H](O)[C@H]3O)c2n1,278.15,ethanol,CCO,0.0041,0.07172597688464304,-1.1443235280910848,Ticagrelor,274693-27-5,9871419,Yes,10.1021/acs.jced.0c00127
CCCSc1nc(N[C@@H]2C[C@H]2c2ccc(F)c(F)c2)c2nnn([C@@H]3C[C@H](OCCO)[C@@H](O)[C@H]3O)c2n1,283.15,ethanol,CCO,0.005028,0.0874904740717676,-1.0580392302151587,Ticagrelor,274693-27-5,9871419,Yes,10.1021/acs.jced.0c00127
CCCSc1nc(N[C@@H]2C[C@H]2c2ccc(F)c(F)c2)c2nnn([C@@H]3C[C@H](OCCO)[C@@H](O)[C@H]3O)c2n1,288.15,ethanol,CCO,0.006247,0.10824845890705073,-0.9655782778191988,Ticagrelor,274693-27-5,9871419,Yes,10.1021/acs.jced.0c00127
CCCSc1nc(N[C@@H]2C[C@H]2c2ccc(F)c(F)c2)c2nnn([C@@H]3C[C@H](OCCO)[C@@H](O)[C@H]3O)c2n1,293.15,ethanol,CCO,0.007475,0.12907454264058685,-0.8891594051459055,Ticagrelor,274693-27-5,9871419,Yes,10.1021/acs.jced.0c00127
CCCSc1nc(N[C@@H]2C[C@H]2c2ccc(F)c(F)c2)c2nnn([C@@H]3C[C@H](OCCO)[C@@H](O)[C@H]3O)c2n1,298.15,ethanol,CCO,0.008812,0.15157136196459978,-0.8193828469601282,Ticagrelor,274693-27-5,9871419,Yes,10.1021/acs.jced.0c00127
CCCSc1nc(N[C@@H]2C[C@H]2c2ccc(F)c(F)c2)c2nnn([C@@H]3C[C@H](OCCO)[C@@H](O)[C@H]3O)c2n1,303.15,ethanol,CCO,0.01054,0.18056310166341366,-0.7433709936747799,Ticagrelor,274693-27-5,9871419,Yes,10.1021/acs.jced.0c00127
CCCSc1nc(N[C@@H]2C[C@H]2c2ccc(F)c(F)c2)c2nnn([C@@H]3C[C@H](OCCO)[C@@H](O)[C@H]3O)c2n1,308.15,ethanol,CCO,0.01248,0.21298323865887606,-0.6716545732954742,Ticagrelor,274693-27-5,9871419,Yes,10.1021/acs.jced.0c00127
CCCSc1nc(N[C@@H]2C[C@H]2c2ccc(F)c(F)c2)c2nnn([C@@H]3C[C@H](OCCO)[C@@H](O)[C@H]3O)c2n1,313.15,ethanol,CCO,0.01486,0.2528268074542281,-0.5971768793129122,Ticagrelor,274693-27-5,9871419,Yes,10.1021/acs.jced.0c00127
c1cnc2[nH]ccc2c1,278.15,ethanol,CCO,0.1522,3.1277323913679353,0.4952295877624897,7-azaindole,271-63-6,9222,No,10.1021/acs.jced.0c00128
c1cnc2[nH]ccc2c1,283.15,ethanol,CCO,0.1721,3.5989792914518626,0.5561793477270821,7-azaindole,271-63-6,9222,No,10.1021/acs.jced.0c00128
c1cnc2[nH]ccc2c1,288.15,ethanol,CCO,0.1911,4.068127170641963,0.6093945206137384,7-azaindole,271-63-6,9222,No,10.1021/acs.jced.0c00128
c1cnc2[nH]ccc2c1,293.15,ethanol,CCO,0.2109,4.580526382768581,0.6609153889200029,7-azaindole,271-63-6,9222,No,10.1021/acs.jced.0c00128
c1cnc2[nH]ccc2c1,298.15,ethanol,CCO,0.2321,5.153107150001032,0.7120691729618271,7-azaindole,271-63-6,9222,No,10.1021/acs.jced.0c00128
c1cnc2[nH]ccc2c1,303.15,ethanol,CCO,0.2521,5.713680477731231,0.7569159499707391,7-azaindole,271-63-6,9222,No,10.1021/acs.jced.0c00128
c1cnc2[nH]ccc2c1,308.15,ethanol,CCO,0.2752,6.39892450411627,0.8061069862998731,7-azaindole,271-63-6,9222,No,10.1021/acs.jced.0c00128
c1cnc2[nH]ccc2c1,313.15,ethanol,CCO,0.2994,7.162818185064619,0.8550839275337024,7-azaindole,271-63-6,9222,No,10.1021/acs.jced.0c00128
c1cnc2[nH]ccc2c1,318.15,ethanol,CCO,0.3262,8.066913850963974,0.9067074190043568,7-azaindole,271-63-6,9222,No,10.1021/acs.jced.0c00128
c1cnc2[nH]ccc2c1,323.15,ethanol,CCO,0.3564,9.173841583127512,0.9625512363227149,7-azaindole,271-63-6,9222,No,10.1021/acs.jced.0c00128
O=C1N=c2ccccc2=N1,283.15,ethanol,CCO,0.0028375,0.049265885418367523,-1.3074537075590051,2-benzimidazolone,43135-91-7,162542,No,10.1021/acs.jced.0c00165
O=C1N=c2ccccc2=N1,288.15,ethanol,CCO,0.003232,0.0558349246032142,-1.2530940659758016,2-benzimidazolone,43135-91-7,162542,No,10.1021/acs.jced.0c00165
O=C1N=c2ccccc2=N1,293.15,ethanol,CCO,0.0036531,0.06283792555866348,-1.20177816057185,2-benzimidazolone,43135-91-7,162542,No,10.1021/acs.jced.0c00165
O=C1N=c2ccccc2=N1,298.15,ethanol,CCO,0.0041843,0.07163785035221674,-1.1448574545675232,2-benzimidazolone,43135-91-7,162542,No,10.1021/acs.jced.0c00165
O=C1N=c2ccccc2=N1,303.15,ethanol,CCO,0.0045419,0.0773394751996796,-1.1115987792329112,2-benzimidazolone,43135-91-7,162542,No,10.1021/acs.jced.0c00165
O=C1N=c2ccccc2=N1,308.15,ethanol,CCO,0.0050375,0.08532672717790887,-1.068914912000472,2-benzimidazolone,43135-91-7,162542,No,10.1021/acs.jced.0c00165
O=C1N=c2ccccc2=N1,313.15,ethanol,CCO,0.0057176,0.09638429645931683,-1.0159937183441663,2-benzimidazolone,43135-91-7,162542,No,10.1021/acs.jced.0c00165
O=C1N=c2ccccc2=N1,318.15,ethanol,CCO,0.0065252,0.10944386985384671,-0.9608085590225548,2-benzimidazolone,43135-91-7,162542,No,10.1021/acs.jced.0c00165
O=C1N=c2ccccc2=N1,323.15,ethanol,CCO,0.0075522,0.12606524890000387,-0.8994046143859503,2-benzimidazolone,43135-91-7,162542,No,10.1021/acs.jced.0c00165
CC(C)(c1ccc(O)cc1)c1ccc(O)cc1,273.15,ethanol,CCO,0.2099,4.6536789654256605,0.6677964201296755,Bisphenol A,80-05-7,6623,No,10.1021/acs.jced.0c00166
CC(C)(c1ccc(O)cc1)c1ccc(O)cc1,278.15,ethanol,CCO,0.215,4.771744160812316,0.6786771507304907,Bisphenol A,80-05-7,6623,No,10.1021/acs.jced.0c00166
CC(C)(c1ccc(O)cc1)c1ccc(O)cc1,283.15,ethanol,CCO,0.2213,4.920254862623737,0.69198759922354,Bisphenol A,80-05-7,6623,No,10.1021/acs.jced.0c00166
CC(C)(c1ccc(O)cc1)c1ccc(O)cc1,288.15,ethanol,CCO,0.227,5.056791324627885,0.7038750322498063,Bisphenol A,80-05-7,6623,No,10.1021/acs.jced.0c00166
CC(C)(c1ccc(O)cc1)c1ccc(O)cc1,293.15,ethanol,CCO,0.2325,5.191769773466128,0.7153154256393596,Bisphenol A,80-05-7,6623,No,10.1021/acs.jced.0c00166
CC(C)(c1ccc(O)cc1)c1ccc(O)cc1,298.15,ethanol,CCO,0.2396,5.3720915550490105,0.7301434056187456,Bisphenol A,80-05-7,6623,No,10.1021/acs.jced.0c00166
CC(C)(c1ccc(O)cc1)c1ccc(O)cc1,303.15,ethanol,CCO,0.2462,5.536286454764196,0.7432185529994405,Bisphenol A,80-05-7,6623,No,10.1021/acs.jced.0c00166
CC(C)(c1ccc(O)cc1)c1ccc(O)cc1,308.15,ethanol,CCO,0.2531,5.7109246106565905,0.7567064271246836,Bisphenol A,80-05-7,6623,No,10.1021/acs.jced.0c00166
CC(C)(c1ccc(O)cc1)c1ccc(O)cc1,313.15,ethanol,CCO,0.2597,5.879852948241901,0.7693664647554432,Bisphenol A,80-05-7,6623,No,10.1021/acs.jced.0c00166
O=C(Nc1ccccc1)c1ccccc1,274.15,ethanol,CCO,0.002245,0.039372043798140105,-1.404812040449392,Benzanilide,93-98-1,7168,No,10.1021/acs.jced.0c00167
O=C(Nc1ccccc1)c1ccccc1,278.15,ethanol,CCO,0.002564,0.04478590241301198,-1.348858670549819,Benzanilide,93-98-1,7168,No,10.1021/acs.jced.0c00167
O=C(Nc1ccccc1)c1ccccc1,283.15,ethanol,CCO,0.003089,0.05364606608109353,-1.2704621197728492,Benzanilide,93-98-1,7168,No,10.1021/acs.jced.0c00167
O=C(Nc1ccccc1)c1ccccc1,288.15,ethanol,CCO,0.003794,0.06558081996928206,-1.183223157567412,Benzanilide,93-98-1,7168,No,10.1021/acs.jced.0c00167
O=C(Nc1ccccc1)c1ccccc1,293.15,ethanol,CCO,0.004559,0.0784919141846198,-1.1051750796352502,Benzanilide,93-98-1,7168,No,10.1021/acs.jced.0c00167
O=C(Nc1ccccc1)c1ccccc1,298.15,ethanol,CCO,0.005479,0.09392604649630888,-1.0272139574565886,Benzanilide,93-98-1,7168,No,10.1021/acs.jced.0c00167
O=C(Nc1ccccc1)c1ccccc1,303.15,ethanol,CCO,0.006731,0.11486807597530373,-0.9398006532454091,Benzanilide,93-98-1,7168,No,10.1021/acs.jced.0c00167
O=C(Nc1ccccc1)c1ccccc1,308.15,ethanol,CCO,0.007985,0.13565425569047854,-0.8675665771777233,Benzanilide,93-98-1,7168,No,10.1021/acs.jced.0c00167
O=C(Nc1ccccc1)c1ccccc1,313.15,ethanol,CCO,0.009571,0.16197061553141476,-0.7905637673714281,Benzanilide,93-98-1,7168,No,10.1021/acs.jced.0c00167
O=C(O)Cc1ccc([N+](=O)[O-])cc1,283.15,ethanol,CCO,0.07576,1.4191606662315994,0.15203156565331002,4-nitrophenylacetic acid,104-03-0,4661,No,10.1021/acs.jced.0c00182
O=C(O)Cc1ccc([N+](=O)[O-])cc1,288.15,ethanol,CCO,0.08492,1.5980103615271408,0.20357959096012054,4-nitrophenylacetic acid,104-03-0,4661,No,10.1021/acs.jced.0c00182
O=C(O)Cc1ccc([N+](=O)[O-])cc1,293.15,ethanol,CCO,0.09788,1.8595184939042921,0.26940050200697985,4-nitrophenylacetic acid,104-03-0,4661,No,10.1021/acs.jced.0c00182
O=C(O)Cc1ccc([N+](=O)[O-])cc1,298.15,ethanol,CCO,0.1111,2.130884217775231,0.3285598528360314,4-nitrophenylacetic acid,104-03-0,4661,No,10.1021/acs.jced.0c00182
O=C(O)Cc1ccc([N+](=O)[O-])cc1,303.15,ethanol,CCO,0.128,2.488170416891615,0.3958801222330302,4-nitrophenylacetic acid,104-03-0,4661,No,10.1021/acs.jced.0c00182
O=C(O)Cc1ccc([N+](=O)[O-])cc1,308.15,ethanol,CCO,0.1477,2.9205506892011885,0.46546474827450723,4-nitrophenylacetic acid,104-03-0,4661,No,10.1021/acs.jced.0c00182
O=C(O)Cc1ccc([N+](=O)[O-])cc1,313.15,ethanol,CCO,0.1697,3.4256979588122785,0.5347490689027674,4-nitrophenylacetic acid,104-03-0,4661,No,10.1021/acs.jced.0c00182
O=C(O)Cc1ccc([N+](=O)[O-])cc1,318.15,ethanol,CCO,0.1956,4.05183039010334,0.6076512574720795,4-nitrophenylacetic acid,104-03-0,4661,No,10.1021/acs.jced.0c00182
O=C(O)Cc1ccc([N+](=O)[O-])cc1,323.15,ethanol,CCO,0.2225,4.740882524947375,0.6758591940029448,4-nitrophenylacetic acid,104-03-0,4661,No,10.1021/acs.jced.0c00182
O=C(O)Cc1ccc([N+](=O)[O-])cc1,328.15,ethanol,CCO,0.2541,5.609551130848449,0.7489281109540422,4-nitrophenylacetic acid,104-03-0,4661,No,10.1021/acs.jced.0c00182
C#C[C@]1(O)CC[C@H]2[C@@H]3CCC4=CC(=O)CC[C@@H]4[C@H]3C(=C)C[C@@]21CC,273.15,ethanol,CCO,0.0017,0.02983004397609707,-1.5253461063911316,Etonogestrel,54048-10-1,6917715,Yes,10.1021/acs.jced.0c00201
C#C[C@]1(O)CC[C@H]2[C@@H]3CCC4=CC(=O)CC[C@@H]4[C@H]3C(=C)C[C@@]21CC,278.15,ethanol,CCO,0.00209,0.036489109016620204,-1.4378367410170863,Etonogestrel,54048-10-1,6917715,Yes,10.1021/acs.jced.0c00201
C#C[C@]1(O)CC[C@H]2[C@@H]3CCC4=CC(=O)CC[C@@H]4[C@H]3C(=C)C[C@@]21CC,283.15,ethanol,CCO,0.00249,0.0432173814071213,-1.3643415510781882,Etonogestrel,54048-10-1,6917715,Yes,10.1021/acs.jced.0c00201
C#C[C@]1(O)CC[C@H]2[C@@H]3CCC4=CC(=O)CC[C@@H]4[C@H]3C(=C)C[C@@]21CC,288.15,ethanol,CCO,0.00293,0.05060234461967595,-1.2958293600021566,Etonogestrel,54048-10-1,6917715,Yes,10.1021/acs.jced.0c00201
C#C[C@]1(O)CC[C@H]2[C@@H]3CCC4=CC(=O)CC[C@@H]4[C@H]3C(=C)C[C@@]21CC,293.15,ethanol,CCO,0.00343,0.058987116013923105,-1.2292428367492632,Etonogestrel,54048-10-1,6917715,Yes,10.1021/acs.jced.0c00201
C#C[C@]1(O)CC[C@H]2[C@@H]3CCC4=CC(=O)CC[C@@H]4[C@H]3C(=C)C[C@@]21CC,298.15,ethanol,CCO,0.00412,0.07053243957782265,-1.151611094506973,Etonogestrel,54048-10-1,6917715,Yes,10.1021/acs.jced.0c00201
C#C[C@]1(O)CC[C@H]2[C@@H]3CCC4=CC(=O)CC[C@@H]4[C@H]3C(=C)C[C@@]21CC,303.15,ethanol,CCO,0.00494,0.08415197592855325,-1.0749356821267488,Etonogestrel,54048-10-1,6917715,Yes,10.1021/acs.jced.0c00201
C#C[C@]1(O)CC[C@H]2[C@@H]3CCC4=CC(=O)CC[C@@H]4[C@H]3C(=C)C[C@@]21CC,308.15,ethanol,CCO,0.00593,0.10053434837284221,-0.9976855326694835,Etonogestrel,54048-10-1,6917715,Yes,10.1021/acs.jced.0c00201
C#C[C@]1(O)CC[C@H]2[C@@H]3CCC4=CC(=O)CC[C@@H]4[C@H]3C(=C)C[C@@]21CC,313.15,ethanol,CCO,0.00695,0.11730484590741691,-0.9306840466450804,Etonogestrel,54048-10-1,6917715,Yes,10.1021/acs.jced.0c00201
C#C[C@]1(O)CC[C@H]2[C@@H]3CCC4=CC(=O)CC[C@@H]4[C@H]3C(=C)C[C@@]21CC,318.15,ethanol,CCO,0.00817,0.1372585115927747,-0.8624607148330025,Etonogestrel,54048-10-1,6917715,Yes,10.1021/acs.jced.0c00201
C#C[C@]1(O)CC[C@H]2[C@@H]3CCC4=CC(=O)CC[C@@H]4[C@H]3C(=C)C[C@@]21CC,323.15,ethanol,CCO,0.00967,0.16176185374425742,-0.7911238848348688,Etonogestrel,54048-10-1,6917715,Yes,10.1021/acs.jced.0c00201
O=[N+]([O-])N(CCO)CCO.O=[N+]([O-])O.O=[N+]([O-])O,283.15,ethanol,CCO,0.00314,0.05453456310650429,-1.2633281617838654,N-nitrodiethanolamine dinitrate,,23618239,No,10.1021/acs.jced.0c00211
O=[N+]([O-])N(CCO)CCO.O=[N+]([O-])O.O=[N+]([O-])O,288.15,ethanol,CCO,0.00518,0.08966313528126575,-1.0473860790822471,N-nitrodiethanolamine dinitrate,,23618239,No,10.1021/acs.jced.0c00211
O=[N+]([O-])N(CCO)CCO.O=[N+]([O-])O.O=[N+]([O-])O,293.15,ethanol,CCO,0.00751,0.1296834781533001,-0.8871153500832872,N-nitrodiethanolamine dinitrate,,23618239,No,10.1021/acs.jced.0c00211
O=[N+]([O-])N(CCO)CCO.O=[N+]([O-])O.O=[N+]([O-])O,298.15,ethanol,CCO,0.00986,0.16977706027005732,-0.7701209906006482,N-nitrodiethanolamine dinitrate,,23618239,No,10.1021/acs.jced.0c00211
O=[N+]([O-])N(CCO)CCO.O=[N+]([O-])O.O=[N+]([O-])O,303.15,ethanol,CCO,0.01184,0.20310053617478716,-0.6922889300789745,N-nitrodiethanolamine dinitrate,,23618239,No,10.1021/acs.jced.0c00211
O=[N+]([O-])N(CCO)CCO.O=[N+]([O-])O.O=[N+]([O-])O,308.15,ethanol,CCO,0.01314,0.22439674884253377,-0.6489834396171947,N-nitrodiethanolamine dinitrate,,23618239,No,10.1021/acs.jced.0c00211
O=[N+]([O-])N(CCO)CCO.O=[N+]([O-])O.O=[N+]([O-])O,313.15,ethanol,CCO,0.01394,0.2369527189690973,-0.6253383035229234,N-nitrodiethanolamine dinitrate,,23618239,No,10.1021/acs.jced.0c00211
NS(=O)(=O)Cc1noc2ccccc12,273.15,ethanol,CCO,0.001119,0.01962376694615209,-1.7072176224963886,Zonisamide,68291-97-4,5734,Yes,10.1021/acs.jced.0c00249
NS(=O)(=O)Cc1noc2ccccc12,278.15,ethanol,CCO,0.001348,0.023517116124109144,-1.6286159363448813,Zonisamide,68291-97-4,5734,Yes,10.1021/acs.jced.0c00249
NS(=O)(=O)Cc1noc2ccccc12,283.15,ethanol,CCO,0.001593,0.027623869809737907,-1.5587154814673794,Zonisamide,68291-97-4,5734,Yes,10.1021/acs.jced.0c00249
NS(=O)(=O)Cc1noc2ccccc12,288.15,ethanol,CCO,0.001877,0.03238238846350024,-1.489691121664704,Zonisamide,68291-97-4,5734,Yes,10.1021/acs.jced.0c00249
NS(=O)(=O)Cc1noc2ccccc12,293.15,ethanol,CCO,0.002213,0.038011448994311796,-1.4200855747999608,Zonisamide,68291-97-4,5734,Yes,10.1021/acs.jced.0c00249
NS(=O)(=O)Cc1noc2ccccc12,298.15,ethanol,CCO,0.002549,0.04356893714002147,-1.3608230345066132,Zonisamide,68291-97-4,5734,Yes,10.1021/acs.jced.0c00249
NS(=O)(=O)Cc1noc2ccccc12,303.15,ethanol,CCO,0.002898,0.04926578772962528,-1.3074545687172572,Zonisamide,68291-97-4,5734,Yes,10.1021/acs.jced.0c00249
NS(=O)(=O)Cc1noc2ccccc12,308.15,ethanol,CCO,0.003298,0.05576504576980162,-1.2536379370112087,Zonisamide,68291-97-4,5734,Yes,10.1021/acs.jced.0c00249
NS(=O)(=O)Cc1noc2ccccc12,313.15,ethanol,CCO,0.003733,0.062803595721168,-1.2020154907029736,Zonisamide,68291-97-4,5734,Yes,10.1021/acs.jced.0c00249
CC(=O)Oc1ccccc1C(=O)Nc1ncc([N+](=O)[O-])s1,273.15,ethanol,CCO,0.000117,0.002049758615555968,-2.6882972794830002,Nitazoxanide,55981-09-4,41684,Yes,10.1021/acs.jced.0c00254
CC(=O)Oc1ccccc1C(=O)Nc1ncc([N+](=O)[O-])s1,278.15,ethanol,CCO,0.000147,0.0025614715011336303,-2.5915104717100514,Nitazoxanide,55981-09-4,41684,Yes,10.1021/acs.jced.0c00254
CC(=O)Oc1ccccc1C(=O)Nc1ncc([N+](=O)[O-])s1,283.15,ethanol,CCO,0.000179,0.0030996105944762283,-2.5086928633569707,Nitazoxanide,55981-09-4,41684,Yes,10.1021/acs.jced.0c00254