SMILES_Solute,Temperature_K,Solvent,SMILES_Solvent,Solubility(mole_fraction),Solubility(mol/L),LogS(mol/L),Compound_Name,CAS,PubChem_CID,FDA_Approved,Source
OC[C@H]1O[C@@H](Oc2c(O)cc(O)cc2/C=C/c2ccc(O)cc2)[C@H](O)[C@@H](O)[C@@H]1O,313.15,ethanol,CCO,0.02813,0.4851363543431811,-0.31413617971519364,"2,3,5,4′-tetrahydroxystilbene-2-o-β-d-glucoside",82373-94-2,5321884,No,10.1016/j.molliq.2018.02.046
OC[C@H]1O[C@@H](Oc2c(O)cc(O)cc2/C=C/c2ccc(O)cc2)[C@H](O)[C@@H](O)[C@@H]1O,318.15,ethanol,CCO,0.03258,0.5611648852843196,-0.2509095126336627,"2,3,5,4′-tetrahydroxystilbene-2-o-β-d-glucoside",82373-94-2,5321884,No,10.1016/j.molliq.2018.02.046
COc1ccc(-c2nn(-c3ccccc3)cc2/C=C/C(=O)c2nc3ccccc3[nH]2)cc1,298.15,ethanol,CCO,0.0003519,0.006001652171114441,-2.2217291779453125,(E)‑1‑(1H‑benzo[d]imidazole‑2‑yl)‑3‑(3‑(4‑methxyphenyl)‑1‑phenyl‑1H‑pyrazol‑4‑yl) prop‑2‑en‑1-one,,,No,10.1016/j.molliq.2018.12.081
COc1ccc(-c2nn(-c3ccccc3)cc2/C=C/C(=O)c2nc3ccccc3[nH]2)cc1,303.15,ethanol,CCO,0.000372,0.006307992452199795,-2.2001088349959472,(E)‑1‑(1H‑benzo[d]imidazole‑2‑yl)‑3‑(3‑(4‑methxyphenyl)‑1‑phenyl‑1H‑pyrazol‑4‑yl) prop‑2‑en‑1-one,,,No,10.1016/j.molliq.2018.12.081
COc1ccc(-c2nn(-c3ccccc3)cc2/C=C/C(=O)c2nc3ccccc3[nH]2)cc1,308.15,ethanol,CCO,0.0003855,0.006499329820370058,-2.187131423406493,(E)‑1‑(1H‑benzo[d]imidazole‑2‑yl)‑3‑(3‑(4‑methxyphenyl)‑1‑phenyl‑1H‑pyrazol‑4‑yl) prop‑2‑en‑1-one,,,No,10.1016/j.molliq.2018.12.081
COc1ccc(-c2nn(-c3ccccc3)cc2/C=C/C(=O)c2nc3ccccc3[nH]2)cc1,313.15,ethanol,CCO,0.0003986,0.006683634669905242,-2.1749872968367523,(E)‑1‑(1H‑benzo[d]imidazole‑2‑yl)‑3‑(3‑(4‑methxyphenyl)‑1‑phenyl‑1H‑pyrazol‑4‑yl) prop‑2‑en‑1-one,,,No,10.1016/j.molliq.2018.12.081
COc1ccc(-c2nn(-c3ccccc3)cc2/C=C/C(=O)c2nc3ccccc3[nH]2)cc1,318.15,ethanol,CCO,0.0004195,0.006993082613763498,-2.155331341130605,(E)‑1‑(1H‑benzo[d]imidazole‑2‑yl)‑3‑(3‑(4‑methxyphenyl)‑1‑phenyl‑1H‑pyrazol‑4‑yl) prop‑2‑en‑1-one,,,No,10.1016/j.molliq.2018.12.081
COc1ccc(-c2nn(-c3ccccc3)cc2/C=C/C(=O)c2nc3ccccc3[nH]2)cc1,323.15,ethanol,CCO,0.00043,0.007126639961489199,-2.147115181246287,(E)‑1‑(1H‑benzo[d]imidazole‑2‑yl)‑3‑(3‑(4‑methxyphenyl)‑1‑phenyl‑1H‑pyrazol‑4‑yl) prop‑2‑en‑1-one,,,No,10.1016/j.molliq.2018.12.081
COc1ccc(-c2nn(-c3ccccc3)cc2/C=C/C(=O)c2nc3ccccc3[nH]2)cc1,328.15,ethanol,CCO,0.0004518,0.007442974622452472,-2.128253461774976,(E)‑1‑(1H‑benzo[d]imidazole‑2‑yl)‑3‑(3‑(4‑methxyphenyl)‑1‑phenyl‑1H‑pyrazol‑4‑yl) prop‑2‑en‑1-one,,,No,10.1016/j.molliq.2018.12.081
COc1ccc(-c2nn(-c3ccccc3)cc2/C=C/C(=O)c2nc3ccccc3[nH]2)cc1OC,298.15,ethanol,CCO,3.91e-05,0.0006666416423232621,-3.176107561263028,"(E)‑1‑(1H‑benzo[d]imidazole‑2‑yl)‑3‑(3‑(3,4‑dimethoxyphenyl)‑1‑phenyl‑1H‑pyrazol‑4‑yl)prop‑2‑en‑1-one",,,No,10.1016/j.molliq.2018.12.081
COc1ccc(-c2nn(-c3ccccc3)cc2/C=C/C(=O)c2nc3ccccc3[nH]2)cc1OC,303.15,ethanol,CCO,5e-05,0.0008475754270250576,-3.0718216428792706,"(E)‑1‑(1H‑benzo[d]imidazole‑2‑yl)‑3‑(3‑(3,4‑dimethoxyphenyl)‑1‑phenyl‑1H‑pyrazol‑4‑yl)prop‑2‑en‑1-one",,,No,10.1016/j.molliq.2018.12.081
COc1ccc(-c2nn(-c3ccccc3)cc2/C=C/C(=O)c2nc3ccccc3[nH]2)cc1OC,308.15,ethanol,CCO,5.88e-05,0.000991013577769551,-3.0039203952523663,"(E)‑1‑(1H‑benzo[d]imidazole‑2‑yl)‑3‑(3‑(3,4‑dimethoxyphenyl)‑1‑phenyl‑1H‑pyrazol‑4‑yl)prop‑2‑en‑1-one",,,No,10.1016/j.molliq.2018.12.081
COc1ccc(-c2nn(-c3ccccc3)cc2/C=C/C(=O)c2nc3ccccc3[nH]2)cc1OC,313.15,ethanol,CCO,7.159999999999999e-05,0.0012001799946934617,-2.9207536165856265,"(E)‑1‑(1H‑benzo[d]imidazole‑2‑yl)‑3‑(3‑(3,4‑dimethoxyphenyl)‑1‑phenyl‑1H‑pyrazol‑4‑yl)prop‑2‑en‑1-one",,,No,10.1016/j.molliq.2018.12.081
COc1ccc(-c2nn(-c3ccccc3)cc2/C=C/C(=O)c2nc3ccccc3[nH]2)cc1OC,318.15,ethanol,CCO,8.46e-05,0.0014098132075521961,-2.850838425148361,"(E)‑1‑(1H‑benzo[d]imidazole‑2‑yl)‑3‑(3‑(3,4‑dimethoxyphenyl)‑1‑phenyl‑1H‑pyrazol‑4‑yl)prop‑2‑en‑1-one",,,No,10.1016/j.molliq.2018.12.081
COc1ccc(-c2nn(-c3ccccc3)cc2/C=C/C(=O)c2nc3ccccc3[nH]2)cc1OC,323.15,ethanol,CCO,0.0001,0.0016568111476975044,-2.780726991995323,"(E)‑1‑(1H‑benzo[d]imidazole‑2‑yl)‑3‑(3‑(3,4‑dimethoxyphenyl)‑1‑phenyl‑1H‑pyrazol‑4‑yl)prop‑2‑en‑1-one",,,No,10.1016/j.molliq.2018.12.081
COc1ccc(-c2nn(-c3ccccc3)cc2/C=C/C(=O)c2nc3ccccc3[nH]2)cc1OC,328.15,ethanol,CCO,0.0001111,0.0018296430267536305,-2.7376336352060977,"(E)‑1‑(1H‑benzo[d]imidazole‑2‑yl)‑3‑(3‑(3,4‑dimethoxyphenyl)‑1‑phenyl‑1H‑pyrazol‑4‑yl)prop‑2‑en‑1-one",,,No,10.1016/j.molliq.2018.12.081
COc1cccc(-c2nn(-c3ccccc3)cc2/C=C/C(=O)c2nc3ccccc3[nH]2)c1,298.15,ethanol,CCO,7.240000000000001e-05,0.0012344363744307835,-2.908531289649197,(E)‑1‑(1H‑benzo[d]imidazole‑2‑yl)‑3‑(3‑methxyphenyl‑1H‑pyrazol‑4‑yl)prop‑2‑en-1-one,,,No,10.1016/j.molliq.2018.12.081
COc1cccc(-c2nn(-c3ccccc3)cc2/C=C/C(=O)c2nc3ccccc3[nH]2)c1,303.15,ethanol,CCO,8.5e-05,0.0014409286609674834,-2.8413575201680388,(E)‑1‑(1H‑benzo[d]imidazole‑2‑yl)‑3‑(3‑methxyphenyl‑1H‑pyrazol‑4‑yl)prop‑2‑en-1-one,,,No,10.1016/j.molliq.2018.12.081
COc1cccc(-c2nn(-c3ccccc3)cc2/C=C/C(=O)c2nc3ccccc3[nH]2)c1,308.15,ethanol,CCO,0.0001056,0.0017798627890832552,-2.7496134764781037,(E)‑1‑(1H‑benzo[d]imidazole‑2‑yl)‑3‑(3‑methxyphenyl‑1H‑pyrazol‑4‑yl)prop‑2‑en-1-one,,,No,10.1016/j.molliq.2018.12.081
COc1cccc(-c2nn(-c3ccccc3)cc2/C=C/C(=O)c2nc3ccccc3[nH]2)c1,313.15,ethanol,CCO,0.00012130000000000001,0.002033366894569795,-2.691784251509134,(E)‑1‑(1H‑benzo[d]imidazole‑2‑yl)‑3‑(3‑methxyphenyl‑1H‑pyrazol‑4‑yl)prop‑2‑en-1-one,,,No,10.1016/j.molliq.2018.12.081
COc1cccc(-c2nn(-c3ccccc3)cc2/C=C/C(=O)c2nc3ccccc3[nH]2)c1,318.15,ethanol,CCO,0.0001361,0.0022681496511248863,-2.6443282943498483,(E)‑1‑(1H‑benzo[d]imidazole‑2‑yl)‑3‑(3‑methxyphenyl‑1H‑pyrazol‑4‑yl)prop‑2‑en-1-one,,,No,10.1016/j.molliq.2018.12.081
COc1cccc(-c2nn(-c3ccccc3)cc2/C=C/C(=O)c2nc3ccccc3[nH]2)c1,323.15,ethanol,CCO,0.0001482,0.0024555124884263974,-2.6098578527598746,(E)‑1‑(1H‑benzo[d]imidazole‑2‑yl)‑3‑(3‑methxyphenyl‑1H‑pyrazol‑4‑yl)prop‑2‑en-1-one,,,No,10.1016/j.molliq.2018.12.081
COc1cccc(-c2nn(-c3ccccc3)cc2/C=C/C(=O)c2nc3ccccc3[nH]2)c1,328.15,ethanol,CCO,0.0001651,0.0027190853142216105,-2.5655771657429884,(E)‑1‑(1H‑benzo[d]imidazole‑2‑yl)‑3‑(3‑methxyphenyl‑1H‑pyrazol‑4‑yl)prop‑2‑en-1-one,,,No,10.1016/j.molliq.2018.12.081
O=C(/C=C/c1cn(-c2ccccc2)nc1-c1ccc(Cl)cc1)c1nc2ccccc2[nH]1,298.15,ethanol,CCO,0.0001017,0.0017340588127015668,-2.760936176987486,(E)‑1‑(1H‑benzo[d]imidazole‑2‑yl)‑3‑(3‑(4‑chlorophenyl)‑phenyl‑1H‑pyrazol‑4‑yl) prop‑2‑en‑1-one,,,No,10.1016/j.molliq.2018.12.081
O=C(/C=C/c1cn(-c2ccccc2)nc1-c1ccc(Cl)cc1)c1nc2ccccc2[nH]1,303.15,ethanol,CCO,0.00011300000000000001,0.0019156411565040615,-2.717685840949434,(E)‑1‑(1H‑benzo[d]imidazole‑2‑yl)‑3‑(3‑(4‑chlorophenyl)‑phenyl‑1H‑pyrazol‑4‑yl) prop‑2‑en‑1-one,,,No,10.1016/j.molliq.2018.12.081
O=C(/C=C/c1cn(-c2ccccc2)nc1-c1ccc(Cl)cc1)c1nc2ccccc2[nH]1,308.15,ethanol,CCO,0.0001199,0.0020209147772383253,-2.6944520004656547,(E)‑1‑(1H‑benzo[d]imidazole‑2‑yl)‑3‑(3‑(4‑chlorophenyl)‑phenyl‑1H‑pyrazol‑4‑yl) prop‑2‑en‑1-one,,,No,10.1016/j.molliq.2018.12.081
O=C(/C=C/c1cn(-c2ccccc2)nc1-c1ccc(Cl)cc1)c1nc2ccccc2[nH]1,313.15,ethanol,CCO,0.0001325,0.0022211387588363008,-2.6534243093873506,(E)‑1‑(1H‑benzo[d]imidazole‑2‑yl)‑3‑(3‑(4‑chlorophenyl)‑phenyl‑1H‑pyrazol‑4‑yl) prop‑2‑en‑1-one,,,No,10.1016/j.molliq.2018.12.081
O=C(/C=C/c1cn(-c2ccccc2)nc1-c1ccc(Cl)cc1)c1nc2ccccc2[nH]1,318.15,ethanol,CCO,0.0001484,0.0024731634749473636,-2.606747176028065,(E)‑1‑(1H‑benzo[d]imidazole‑2‑yl)‑3‑(3‑(4‑chlorophenyl)‑phenyl‑1H‑pyrazol‑4‑yl) prop‑2‑en‑1-one,,,No,10.1016/j.molliq.2018.12.081
O=C(/C=C/c1cn(-c2ccccc2)nc1-c1ccc(Cl)cc1)c1nc2ccccc2[nH]1,323.15,ethanol,CCO,0.000155,0.0025681985439775547,-2.5903714045826423,(E)‑1‑(1H‑benzo[d]imidazole‑2‑yl)‑3‑(3‑(4‑chlorophenyl)‑phenyl‑1H‑pyrazol‑4‑yl) prop‑2‑en‑1-one,,,No,10.1016/j.molliq.2018.12.081
O=C(/C=C/c1cn(-c2ccccc2)nc1-c1ccc(Cl)cc1)c1nc2ccccc2[nH]1,328.15,ethanol,CCO,0.0001725,0.002840979335036142,-2.5465319252747456,(E)‑1‑(1H‑benzo[d]imidazole‑2‑yl)‑3‑(3‑(4‑chlorophenyl)‑phenyl‑1H‑pyrazol‑4‑yl) prop‑2‑en‑1-one,,,No,10.1016/j.molliq.2018.12.081
O=C(/C=C/c1cn(-c2ccccc2)nc1-c1ccc(F)cc1)c1nc2ccccc2[nH]1,298.15,ethanol,CCO,0.0008143,0.013894308100659745,-1.8571630750504906,(E)‑1‑(1H‑benzo[d]imidazole‑2‑yl)‑3‑(3‑(4‑fluorophenyl)‑1H‑pyrazol‑4‑yl)pop‑2‑en‑1-one,,,No,10.1016/j.molliq.2018.12.081
O=C(/C=C/c1cn(-c2ccccc2)nc1-c1ccc(F)cc1)c1nc2ccccc2[nH]1,303.15,ethanol,CCO,0.000828,0.014046778011274713,-1.852423280911472,(E)‑1‑(1H‑benzo[d]imidazole‑2‑yl)‑3‑(3‑(4‑fluorophenyl)‑1H‑pyrazol‑4‑yl)pop‑2‑en‑1-one,,,No,10.1016/j.molliq.2018.12.081
O=C(/C=C/c1cn(-c2ccccc2)nc1-c1ccc(F)cc1)c1nc2ccccc2[nH]1,308.15,ethanol,CCO,0.0008393000000000001,0.01415658891196956,-1.8490413790736002,(E)‑1‑(1H‑benzo[d]imidazole‑2‑yl)‑3‑(3‑(4‑fluorophenyl)‑1H‑pyrazol‑4‑yl)pop‑2‑en‑1-one,,,No,10.1016/j.molliq.2018.12.081
O=C(/C=C/c1cn(-c2ccccc2)nc1-c1ccc(F)cc1)c1nc2ccccc2[nH]1,313.15,ethanol,CCO,0.000855,0.014342995423712902,-1.843360140150856,(E)‑1‑(1H‑benzo[d]imidazole‑2‑yl)‑3‑(3‑(4‑fluorophenyl)‑1H‑pyrazol‑4‑yl)pop‑2‑en‑1-one,,,No,10.1016/j.molliq.2018.12.081
O=C(/C=C/c1cn(-c2ccccc2)nc1-c1ccc(F)cc1)c1nc2ccccc2[nH]1,318.15,ethanol,CCO,0.0008689,0.014491114522879591,-1.8388982113181644,(E)‑1‑(1H‑benzo[d]imidazole‑2‑yl)‑3‑(3‑(4‑fluorophenyl)‑1H‑pyrazol‑4‑yl)pop‑2‑en‑1-one,,,No,10.1016/j.molliq.2018.12.081
O=C(/C=C/c1cn(-c2ccccc2)nc1-c1ccc(F)cc1)c1nc2ccccc2[nH]1,323.15,ethanol,CCO,0.000879,0.014574724834391668,-1.836399635816522,(E)‑1‑(1H‑benzo[d]imidazole‑2‑yl)‑3‑(3‑(4‑fluorophenyl)‑1H‑pyrazol‑4‑yl)pop‑2‑en‑1-one,,,No,10.1016/j.molliq.2018.12.081
O=C(/C=C/c1cn(-c2ccccc2)nc1-c1ccc(F)cc1)c1nc2ccccc2[nH]1,328.15,ethanol,CCO,0.000893,0.014717820779916223,-1.832156489816502,(E)‑1‑(1H‑benzo[d]imidazole‑2‑yl)‑3‑(3‑(4‑fluorophenyl)‑1H‑pyrazol‑4‑yl)pop‑2‑en‑1-one,,,No,10.1016/j.molliq.2018.12.081
O=C(/C=C/c1cn(-c2ccccc2)nc1-c1cccc([N+](=O)[O-])c1)c1nc2ccccc2[nH]1,298.15,ethanol,CCO,5.53e-05,0.0009428613828922264,-3.0255521514514947,(E)‑1‑(1H‑benzo[d]imidazole‑2‑yl)‑3‑(3‑(3‑nitrophenyl)‑1‑phenyl‑1H‑pyrazol‑4‑yl) prop‑2‑en‑1-one,,,No,10.1016/j.molliq.2018.12.081
O=C(/C=C/c1cn(-c2ccccc2)nc1-c1cccc([N+](=O)[O-])c1)c1nc2ccccc2[nH]1,303.15,ethanol,CCO,6.2e-05,0.0010510061422154132,-2.9783947458913906,(E)‑1‑(1H‑benzo[d]imidazole‑2‑yl)‑3‑(3‑(3‑nitrophenyl)‑1‑phenyl‑1H‑pyrazol‑4‑yl) prop‑2‑en‑1-one,,,No,10.1016/j.molliq.2018.12.081
O=C(/C=C/c1cn(-c2ccccc2)nc1-c1cccc([N+](=O)[O-])c1)c1nc2ccccc2[nH]1,308.15,ethanol,CCO,7.01e-05,0.0011814768174874836,-2.92757479551789,(E)‑1‑(1H‑benzo[d]imidazole‑2‑yl)‑3‑(3‑(3‑nitrophenyl)‑1‑phenyl‑1H‑pyrazol‑4‑yl) prop‑2‑en‑1-one,,,No,10.1016/j.molliq.2018.12.081
O=C(/C=C/c1cn(-c2ccccc2)nc1-c1cccc([N+](=O)[O-])c1)c1nc2ccccc2[nH]1,313.15,ethanol,CCO,8.42e-05,0.0014114026390414794,-2.8503490748570495,(E)‑1‑(1H‑benzo[d]imidazole‑2‑yl)‑3‑(3‑(3‑nitrophenyl)‑1‑phenyl‑1H‑pyrazol‑4‑yl) prop‑2‑en‑1-one,,,No,10.1016/j.molliq.2018.12.081
O=C(/C=C/c1cn(-c2ccccc2)nc1-c1cccc([N+](=O)[O-])c1)c1nc2ccccc2[nH]1,318.15,ethanol,CCO,9.460000000000001e-05,0.0015764735608027245,-2.80231330845161,(E)‑1‑(1H‑benzo[d]imidazole‑2‑yl)‑3‑(3‑(3‑nitrophenyl)‑1‑phenyl‑1H‑pyrazol‑4‑yl) prop‑2‑en‑1-one,,,No,10.1016/j.molliq.2018.12.081
O=C(/C=C/c1cn(-c2ccccc2)nc1-c1cccc([N+](=O)[O-])c1)c1nc2ccccc2[nH]1,323.15,ethanol,CCO,0.0001032,0.001709834576441671,-2.767045904820576,(E)‑1‑(1H‑benzo[d]imidazole‑2‑yl)‑3‑(3‑(3‑nitrophenyl)‑1‑phenyl‑1H‑pyrazol‑4‑yl) prop‑2‑en‑1-one,,,No,10.1016/j.molliq.2018.12.081
O=C(/C=C/c1cn(-c2ccccc2)nc1-c1cccc([N+](=O)[O-])c1)c1nc2ccccc2[nH]1,328.15,ethanol,CCO,0.0001194,0.001966347352148869,-2.7063397622939322,(E)‑1‑(1H‑benzo[d]imidazole‑2‑yl)‑3‑(3‑(3‑nitrophenyl)‑1‑phenyl‑1H‑pyrazol‑4‑yl) prop‑2‑en‑1-one,,,No,10.1016/j.molliq.2018.12.081
O=C(/C=C/c1cn(-c2ccccc2)nc1-c1ccccc1)c1nc2ccccc2[nH]1,298.15,ethanol,CCO,8.48e-05,0.001445877109065601,-2.8398686179147408,"(E)‑1‑(1H‑benzo[d]imidazole‑2‑yl)‑3‑(1, 3‑diphenyl‑1H‑pyrazol‑4‑yl) prop‑2‑en‑1-one",,,No,10.1016/j.molliq.2018.12.081
O=C(/C=C/c1cn(-c2ccccc2)nc1-c1ccccc1)c1nc2ccccc2[nH]1,303.15,ethanol,CCO,9.4e-05,0.0015935119208375266,-2.79764468328244,"(E)‑1‑(1H‑benzo[d]imidazole‑2‑yl)‑3‑(1, 3‑diphenyl‑1H‑pyrazol‑4‑yl) prop‑2‑en‑1-one",,,No,10.1016/j.molliq.2018.12.081
O=C(/C=C/c1cn(-c2ccccc2)nc1-c1ccccc1)c1nc2ccccc2[nH]1,308.15,ethanol,CCO,0.0001064,0.0017933480329214058,-2.7463354192444505,"(E)‑1‑(1H‑benzo[d]imidazole‑2‑yl)‑3‑(1, 3‑diphenyl‑1H‑pyrazol‑4‑yl) prop‑2‑en‑1-one",,,No,10.1016/j.molliq.2018.12.081
O=C(/C=C/c1cn(-c2ccccc2)nc1-c1ccccc1)c1nc2ccccc2[nH]1,313.15,ethanol,CCO,0.000123,0.002061867710316617,-2.6857392025454954,"(E)‑1‑(1H‑benzo[d]imidazole‑2‑yl)‑3‑(1, 3‑diphenyl‑1H‑pyrazol‑4‑yl) prop‑2‑en‑1-one",,,No,10.1016/j.molliq.2018.12.081
O=C(/C=C/c1cn(-c2ccccc2)nc1-c1ccccc1)c1nc2ccccc2[nH]1,318.15,ethanol,CCO,0.0001348,0.0022464818181300774,-2.648497092013191,"(E)‑1‑(1H‑benzo[d]imidazole‑2‑yl)‑3‑(1, 3‑diphenyl‑1H‑pyrazol‑4‑yl) prop‑2‑en‑1-one",,,No,10.1016/j.molliq.2018.12.081
O=C(/C=C/c1cn(-c2ccccc2)nc1-c1ccccc1)c1nc2ccccc2[nH]1,323.15,ethanol,CCO,0.000146,0.0024190555633230378,-2.616354156207174,"(E)‑1‑(1H‑benzo[d]imidazole‑2‑yl)‑3‑(1, 3‑diphenyl‑1H‑pyrazol‑4‑yl) prop‑2‑en‑1-one",,,No,10.1016/j.molliq.2018.12.081
O=C(/C=C/c1cn(-c2ccccc2)nc1-c1ccccc1)c1nc2ccccc2[nH]1,328.15,ethanol,CCO,0.0001601,0.0026367255107846875,-2.5789350789120307,"(E)‑1‑(1H‑benzo[d]imidazole‑2‑yl)‑3‑(1, 3‑diphenyl‑1H‑pyrazol‑4‑yl) prop‑2‑en‑1-one",,,No,10.1016/j.molliq.2018.12.081
O=C(/C=C/c1cn(-c2ccccc2)nc1-c1ccccc1Cl)c1nc2ccccc2[nH]1,298.15,ethanol,CCO,0.0001051,0.0017920373739296234,-2.746652937128054,(E)‑1‑(1H‑benzo[d]imidazole‑2-yl)‑3‑(3‑(2‑chlorophenyl)‑1‑phenyl‑1H‑pyrazol‑4‑yl) prop‑2‑en‑1-one,,,No,10.1016/j.molliq.2018.12.081
O=C(/C=C/c1cn(-c2ccccc2)nc1-c1ccccc1Cl)c1nc2ccccc2[nH]1,303.15,ethanol,CCO,0.00012529999999999998,0.002124183979176379,-2.6728078709800225,(E)‑1‑(1H‑benzo[d]imidazole‑2-yl)‑3‑(3‑(2‑chlorophenyl)‑1‑phenyl‑1H‑pyrazol‑4‑yl) prop‑2‑en‑1-one,,,No,10.1016/j.molliq.2018.12.081
O=C(/C=C/c1cn(-c2ccccc2)nc1-c1ccccc1Cl)c1nc2ccccc2[nH]1,308.15,ethanol,CCO,0.0001451,0.0024457224751038916,-2.611592825455521,(E)‑1‑(1H‑benzo[d]imidazole‑2-yl)‑3‑(3‑(2‑chlorophenyl)‑1‑phenyl‑1H‑pyrazol‑4‑yl) prop‑2‑en‑1-one,,,No,10.1016/j.molliq.2018.12.081
O=C(/C=C/c1cn(-c2ccccc2)nc1-c1ccccc1Cl)c1nc2ccccc2[nH]1,313.15,ethanol,CCO,0.00015670000000000001,0.002626874473198881,-2.5805606797451692,(E)‑1‑(1H‑benzo[d]imidazole‑2-yl)‑3‑(3‑(2‑chlorophenyl)‑1‑phenyl‑1H‑pyrazol‑4‑yl) prop‑2‑en‑1-one,,,No,10.1016/j.molliq.2018.12.081
O=C(/C=C/c1cn(-c2ccccc2)nc1-c1ccccc1Cl)c1nc2ccccc2[nH]1,318.15,ethanol,CCO,0.0001786,0.0029765521466291554,-2.5262865045804244,(E)‑1‑(1H‑benzo[d]imidazole‑2-yl)‑3‑(3‑(2‑chlorophenyl)‑1‑phenyl‑1H‑pyrazol‑4‑yl) prop‑2‑en‑1-one,,,No,10.1016/j.molliq.2018.12.081
O=C(/C=C/c1cn(-c2ccccc2)nc1-c1ccccc1Cl)c1nc2ccccc2[nH]1,323.15,ethanol,CCO,0.000195,0.0032310887221371487,-2.490651116570544,(E)‑1‑(1H‑benzo[d]imidazole‑2-yl)‑3‑(3‑(2‑chlorophenyl)‑1‑phenyl‑1H‑pyrazol‑4‑yl) prop‑2‑en‑1-one,,,No,10.1016/j.molliq.2018.12.081
O=C(/C=C/c1cn(-c2ccccc2)nc1-c1ccccc1Cl)c1nc2ccccc2[nH]1,328.15,ethanol,CCO,0.0002172,0.0035773234792805943,-2.4464417870205315,(E)‑1‑(1H‑benzo[d]imidazole‑2-yl)‑3‑(3‑(2‑chlorophenyl)‑1‑phenyl‑1H‑pyrazol‑4‑yl) prop‑2‑en‑1-one,,,No,10.1016/j.molliq.2018.12.081
O=C(c1ccc(F)cc1)c1ccc(F)cc1,293.15,ethanol,CCO,0.0084,0.1451822826995629,-0.8380863794712913,"4,4′-difluorobenzophenone",345-92-6,9582,No,10.1016/j.molliq.2020.113903
O=C(c1ccc(F)cc1)c1ccc(F)cc1,298.15,ethanol,CCO,0.0104,0.17917291227757143,-0.7467276472274066,"4,4′-difluorobenzophenone",345-92-6,9582,No,10.1016/j.molliq.2020.113903
O=C(c1ccc(F)cc1)c1ccc(F)cc1,303.15,ethanol,CCO,0.0129,0.22152114927510508,-0.654584804091023,"4,4′-difluorobenzophenone",345-92-6,9582,No,10.1016/j.molliq.2020.113903
O=C(c1ccc(F)cc1)c1ccc(F)cc1,308.15,ethanol,CCO,0.016,0.27403221784502463,-0.5621983743702607,"4,4′-difluorobenzophenone",345-92-6,9582,No,10.1016/j.molliq.2020.113903
O=C(c1ccc(F)cc1)c1ccc(F)cc1,313.15,ethanol,CCO,0.0197,0.33682900938395727,-0.47259051196801494,"4,4′-difluorobenzophenone",345-92-6,9582,No,10.1016/j.molliq.2020.113903
O=C(c1ccc(F)cc1)c1ccc(F)cc1,318.15,ethanol,CCO,0.0242,0.4132463450488471,-0.38379097885061497,"4,4′-difluorobenzophenone",345-92-6,9582,No,10.1016/j.molliq.2020.113903
O=C(c1ccc(F)cc1)c1ccc(F)cc1,323.15,ethanol,CCO,0.0297,0.5070841013862435,-0.2949200056786393,"4,4′-difluorobenzophenone",345-92-6,9582,No,10.1016/j.molliq.2020.113903
O=C(c1ccc(F)cc1)c1ccc(F)cc1,328.15,ethanol,CCO,0.0364,0.622026153651289,-0.2061913546216471,"4,4′-difluorobenzophenone",345-92-6,9582,No,10.1016/j.molliq.2020.113903
O=C(c1ccc(F)cc1)c1ccc(F)cc1,333.15,ethanol,CCO,0.0447,0.7662326253109606,-0.11563936019571515,"4,4′-difluorobenzophenone",345-92-6,9582,No,10.1016/j.molliq.2020.113903
OC(CN1CCN(CC(O)(Cn2cncn2)c2ccc(F)cc2F)CC1)(Cn1cncn1)c1ccc(F)cc1F,293.15,ethanol,CCO,0.000305,0.005228813742368852,-2.2815968280693926,"3,3‘-(piperazine-1,4-diyl)bis(2-(2,4-difluorophenyl)-1-(1H-1,2,4-triazol-1-yl)propan-2-ol) (s-119)",,,No,10.1016/j.molliq.2021.116535
OC(CN1CCN(CC(O)(Cn2cncn2)c2ccc(F)cc2F)CC1)(Cn1cncn1)c1ccc(F)cc1F,298.15,ethanol,CCO,0.00036,0.00613984736777918,-2.2118424249753117,"3,3‘-(piperazine-1,4-diyl)bis(2-(2,4-difluorophenyl)-1-(1H-1,2,4-triazol-1-yl)propan-2-ol) (s-119)",,,No,10.1016/j.molliq.2021.116535
OC(CN1CCN(CC(O)(Cn2cncn2)c2ccc(F)cc2F)CC1)(Cn1cncn1)c1ccc(F)cc1F,303.15,ethanol,CCO,0.000401,0.006799941823666015,-2.1674948028480143,"3,3‘-(piperazine-1,4-diyl)bis(2-(2,4-difluorophenyl)-1-(1H-1,2,4-triazol-1-yl)propan-2-ol) (s-119)",,,No,10.1016/j.molliq.2021.116535
OC(CN1CCN(CC(O)(Cn2cncn2)c2ccc(F)cc2F)CC1)(Cn1cncn1)c1ccc(F)cc1F,308.15,ethanol,CCO,0.000463,0.007806544817278554,-2.1075411426677593,"3,3‘-(piperazine-1,4-diyl)bis(2-(2,4-difluorophenyl)-1-(1H-1,2,4-triazol-1-yl)propan-2-ol) (s-119)",,,No,10.1016/j.molliq.2021.116535
OC(CN1CCN(CC(O)(Cn2cncn2)c2ccc(F)cc2F)CC1)(Cn1cncn1)c1ccc(F)cc1F,313.15,ethanol,CCO,0.0005480000000000001,0.009190113638553276,-2.036679118397187,"3,3‘-(piperazine-1,4-diyl)bis(2-(2,4-difluorophenyl)-1-(1H-1,2,4-triazol-1-yl)propan-2-ol) (s-119)",,,No,10.1016/j.molliq.2021.116535
O=[N+]([O-])c1cc([N+](=O)[O-])c(-c2nnc(-c3nnc(-c4c([N+](=O)[O-])cc([N+](=O)[O-])cc4[N+](=O)[O-])o3)o2)c([N+](=O)[O-])c1,293.15,ethanol,CCO,0.00010580000000000001,0.0018134369939355062,-2.7414975289511974,"5,5′-bis(2,4,6-trinitrophenyl)-2,2′-bis(1,3,4-oxadiazole)",,129048596,No,10.1016/j.molliq.2021.118226
O=[N+]([O-])c1cc([N+](=O)[O-])c(-c2nnc(-c3nnc(-c4c([N+](=O)[O-])cc([N+](=O)[O-])cc4[N+](=O)[O-])o3)o2)c([N+](=O)[O-])c1,298.15,ethanol,CCO,0.00013879999999999999,0.0023667285540190665,-2.6258515495283743,"5,5′-bis(2,4,6-trinitrophenyl)-2,2′-bis(1,3,4-oxadiazole)",,129048596,No,10.1016/j.molliq.2021.118226
O=[N+]([O-])c1cc([N+](=O)[O-])c(-c2nnc(-c3nnc(-c4c([N+](=O)[O-])cc([N+](=O)[O-])cc4[N+](=O)[O-])o3)o2)c([N+](=O)[O-])c1,303.15,ethanol,CCO,0.0001732,0.0029363630572323517,-2.53219024848189,"5,5′-bis(2,4,6-trinitrophenyl)-2,2′-bis(1,3,4-oxadiazole)",,129048596,No,10.1016/j.molliq.2021.118226
O=[N+]([O-])c1cc([N+](=O)[O-])c(-c2nnc(-c3nnc(-c4c([N+](=O)[O-])cc([N+](=O)[O-])cc4[N+](=O)[O-])o3)o2)c([N+](=O)[O-])c1,308.15,ethanol,CCO,0.00021030000000000002,0.003544927486138069,-2.4503926441740584,"5,5′-bis(2,4,6-trinitrophenyl)-2,2′-bis(1,3,4-oxadiazole)",,129048596,No,10.1016/j.molliq.2021.118226
O=[N+]([O-])c1cc([N+](=O)[O-])c(-c2nnc(-c3nnc(-c4c([N+](=O)[O-])cc([N+](=O)[O-])cc4[N+](=O)[O-])o3)o2)c([N+](=O)[O-])c1,313.15,ethanol,CCO,0.0002514,0.004214797688658324,-2.375223266782536,"5,5′-bis(2,4,6-trinitrophenyl)-2,2′-bis(1,3,4-oxadiazole)",,129048596,No,10.1016/j.molliq.2021.118226
O=[N+]([O-])c1cc([N+](=O)[O-])c(-c2nnc(-c3nnc(-c4c([N+](=O)[O-])cc([N+](=O)[O-])cc4[N+](=O)[O-])o3)o2)c([N+](=O)[O-])c1,318.15,ethanol,CCO,0.0002955,0.004925386403081099,-2.3075596928530344,"5,5′-bis(2,4,6-trinitrophenyl)-2,2′-bis(1,3,4-oxadiazole)",,129048596,No,10.1016/j.molliq.2021.118226