SMILES_Solute,Temperature_K,Solvent,SMILES_Solvent,Solubility(mole_fraction),Solubility(mol/L),LogS(mol/L),Compound_Name,CAS,PubChem_CID,FDA_Approved,Source
CCCCC(=O)N(Cc1ccc(-c2ccccc2-c2nn[nH]n2)cc1)[C@H](C(=O)O)C(C)C,278.15,ethanol,CCO,0.04202,0.764201618838995,-0.11679204666318449,Valsartan,137862-53-4,60846,No,10.1016/j.molliq.2024.124774
CCCCC(=O)N(Cc1ccc(-c2ccccc2-c2nn[nH]n2)cc1)[C@H](C(=O)O)C(C)C,283.15,ethanol,CCO,0.056029999999999996,1.027634769823579,0.011838790112657782,Valsartan,137862-53-4,60846,No,10.1016/j.molliq.2024.124774
CCCCC(=O)N(Cc1ccc(-c2ccccc2-c2nn[nH]n2)cc1)[C@H](C(=O)O)C(C)C,288.15,ethanol,CCO,0.06784,1.2532105586452333,0.09802404527609257,Valsartan,137862-53-4,60846,No,10.1016/j.molliq.2024.124774
CCCCC(=O)N(Cc1ccc(-c2ccccc2-c2nn[nH]n2)cc1)[C@H](C(=O)O)C(C)C,293.15,ethanol,CCO,0.08108,1.512191834622347,0.17960688867393784,Valsartan,137862-53-4,60846,No,10.1016/j.molliq.2024.124774
CCCCC(=O)N(Cc1ccc(-c2ccccc2-c2nn[nH]n2)cc1)[C@H](C(=O)O)C(C)C,298.15,ethanol,CCO,0.09768,1.8456262879760312,0.26614376738301104,Valsartan,137862-53-4,60846,No,10.1016/j.molliq.2024.124774
CCCCC(=O)N(Cc1ccc(-c2ccccc2-c2nn[nH]n2)cc1)[C@H](C(=O)O)C(C)C,303.15,ethanol,CCO,0.1115,2.127179175695853,0.3278040727605882,Valsartan,137862-53-4,60846,No,10.1016/j.molliq.2024.124774
CCCCC(=O)N(Cc1ccc(-c2ccccc2-c2nn[nH]n2)cc1)[C@H](C(=O)O)C(C)C,308.15,ethanol,CCO,0.1231,2.3658364808170096,0.37398472425937357,Valsartan,137862-53-4,60846,No,10.1016/j.molliq.2024.124774
CCCCC(=O)N(Cc1ccc(-c2ccccc2-c2nn[nH]n2)cc1)[C@H](C(=O)O)C(C)C,313.15,ethanol,CCO,0.14029999999999998,2.735350659405022,0.4370130087984468,Valsartan,137862-53-4,60846,No,10.1016/j.molliq.2024.124774
CCCCC(=O)N(Cc1ccc(-c2ccccc2-c2nn[nH]n2)cc1)[C@H](C(=O)O)C(C)C,318.15,ethanol,CCO,0.15539999999999998,3.065874733390961,0.4865544063212077,Valsartan,137862-53-4,60846,No,10.1016/j.molliq.2024.124774
CCCCC(=O)N(Cc1ccc(-c2ccccc2-c2nn[nH]n2)cc1)[C@H](C(=O)O)C(C)C,323.15,ethanol,CCO,0.17,3.3931292689043966,0.5306004053870697,Valsartan,137862-53-4,60846,No,10.1016/j.molliq.2024.124774
CC(=O)N[C@@H](CCC(N)=O)C(=O)O,283.15,ethanol,CCO,0.000347,0.00600975214472269,-2.2211434388789435,N-acetyl-L-glutamine,2490-97-3,182230,No,10.1016/j.molliq.2024.125024
CC(=O)N[C@@H](CCC(N)=O)C(=O)O,288.15,ethanol,CCO,0.000389,0.006701117664029593,-2.173852756278362,N-acetyl-L-glutamine,2490-97-3,182230,No,10.1016/j.molliq.2024.125024
CC(=O)N[C@@H](CCC(N)=O)C(=O)O,293.15,ethanol,CCO,0.00046100000000000004,0.00790445686568326,-2.102127966129047,N-acetyl-L-glutamine,2490-97-3,182230,No,10.1016/j.molliq.2024.125024
CC(=O)N[C@@H](CCC(N)=O)C(=O)O,298.15,ethanol,CCO,0.0005430000000000001,0.009262632118519916,-2.0332655843637686,N-acetyl-L-glutamine,2490-97-3,182230,No,10.1016/j.molliq.2024.125024
CC(=O)N[C@@H](CCC(N)=O)C(=O)O,303.15,ethanol,CCO,0.000618,0.010481986343976386,-1.9795564104357115,N-acetyl-L-glutamine,2490-97-3,182230,No,10.1016/j.molliq.2024.125024
CC(=O)N[C@@H](CCC(N)=O)C(=O)O,308.15,ethanol,CCO,0.0006850000000000001,0.011552205518046137,-1.9373350934448463,N-acetyl-L-glutamine,2490-97-3,182230,No,10.1016/j.molliq.2024.125024
CC(=O)N[C@@H](CCC(N)=O)C(=O)O,313.15,ethanol,CCO,0.000768,0.012882411002640065,-1.8900028491537755,N-acetyl-L-glutamine,2490-97-3,182230,No,10.1016/j.molliq.2024.125024
CC(=O)N[C@@H](CCC(N)=O)C(=O)O,318.15,ethanol,CCO,0.0008449999999999999,0.014092184220309629,-1.8510216881319401,N-acetyl-L-glutamine,2490-97-3,182230,No,10.1016/j.molliq.2024.125024
CC(=O)N[C@@H](CCC(N)=O)C(=O)O,323.15,ethanol,CCO,0.0009350000000000001,0.015504131475478142,-1.8095525574480724,N-acetyl-L-glutamine,2490-97-3,182230,No,10.1016/j.molliq.2024.125024
O=S(=O)([O-])Oc1ccc(C(c2ccc(OS(=O)(=O)[O-])cc2)c2ccccn2)cc1.[Na+].[Na+],298.15,ethanol,CCO,0.0011,0.018774542899966228,-1.7264306278758015,Sodium picosulphate,10040-45-6,68654,Yes,10.1016/j.molliq.2024.125044
O=S(=O)([O-])Oc1ccc(C(c2ccc(OS(=O)(=O)[O-])cc2)c2ccccn2)cc1.[Na+].[Na+],303.15,ethanol,CCO,0.0015,0.025464187729204998,-1.594070172633311,Sodium picosulphate,10040-45-6,68654,Yes,10.1016/j.molliq.2024.125044
O=S(=O)([O-])Oc1ccc(C(c2ccc(OS(=O)(=O)[O-])cc2)c2ccccn2)cc1.[Na+].[Na+],308.15,ethanol,CCO,0.0021,0.035465738986556694,-1.450190986486813,Sodium picosulphate,10040-45-6,68654,Yes,10.1016/j.molliq.2024.125044
O=S(=O)([O-])Oc1ccc(C(c2ccc(OS(=O)(=O)[O-])cc2)c2ccccn2)cc1.[Na+].[Na+],313.15,ethanol,CCO,0.003,0.05043457446946322,-1.2972716390836507,Sodium picosulphate,10040-45-6,68654,Yes,10.1016/j.molliq.2024.125044
O=S(=O)([O-])Oc1ccc(C(c2ccc(OS(=O)(=O)[O-])cc2)c2ccccn2)cc1.[Na+].[Na+],318.15,ethanol,CCO,0.0041,0.06859975952415344,-1.1636774067060216,Sodium picosulphate,10040-45-6,68654,Yes,10.1016/j.molliq.2024.125044
Oc1ccccc1C=Nc1ccccn1,268.15,ethanol,CCO,0.009899999999999999,0.1761031574923194,-0.754232857154827,2-[(E)-(2-Pyridinylimino)methyl]phenol,17543-97-4,137227,No,10.1016/j.molliq.2024.125085
Oc1ccccc1C=Nc1ccccn1,273.15,ethanol,CCO,0.0121,0.2145548954741705,-0.6684615717714252,2-[(E)-(2-Pyridinylimino)methyl]phenol,17543-97-4,137227,No,10.1016/j.molliq.2024.125085
Oc1ccccc1C=Nc1ccccn1,278.15,ethanol,CCO,0.01518,0.2685488267410349,-0.5709767406670234,2-[(E)-(2-Pyridinylimino)methyl]phenol,17543-97-4,137227,No,10.1016/j.molliq.2024.125085
Oc1ccccc1C=Nc1ccccn1,283.15,ethanol,CCO,0.01992,0.35188776530420024,-0.45359583277618576,2-[(E)-(2-Pyridinylimino)methyl]phenol,17543-97-4,137227,No,10.1016/j.molliq.2024.125085
Oc1ccccc1C=Nc1ccccn1,288.15,ethanol,CCO,0.02664,0.4712912692203614,-0.3267106055714503,2-[(E)-(2-Pyridinylimino)methyl]phenol,17543-97-4,137227,No,10.1016/j.molliq.2024.125085
Oc1ccccc1C=Nc1ccccn1,293.15,ethanol,CCO,0.035,0.6216008269641043,-0.20648841643090607,2-[(E)-(2-Pyridinylimino)methyl]phenol,17543-97-4,137227,No,10.1016/j.molliq.2024.125085
Oc1ccccc1C=Nc1ccccn1,298.15,ethanol,CCO,0.04888,0.8761825171928445,-0.05740541671642048,2-[(E)-(2-Pyridinylimino)methyl]phenol,17543-97-4,137227,No,10.1016/j.molliq.2024.125085
Nc1cc(Cl)ccc1[N+](=O)[O-],283.15,ethanol,CCO,0.01643,0.28920689955791756,-0.5387913503671744,5-chloro-2-nitroaniline,1635-61-6,74218,No,10.1016/j.molliq.2024.125240
Nc1cc(Cl)ccc1[N+](=O)[O-],288.15,ethanol,CCO,0.01841,0.3229626739525174,-0.4908476678644755,5-chloro-2-nitroaniline,1635-61-6,74218,No,10.1016/j.molliq.2024.125240
Nc1cc(Cl)ccc1[N+](=O)[O-],293.15,ethanol,CCO,0.02149,0.37639340015380673,-0.4243580002870556,5-chloro-2-nitroaniline,1635-61-6,74218,No,10.1016/j.molliq.2024.125240
Nc1cc(Cl)ccc1[N+](=O)[O-],298.15,ethanol,CCO,0.02431,0.42478757489710417,-0.3718281949222162,5-chloro-2-nitroaniline,1635-61-6,74218,No,10.1016/j.molliq.2024.125240
Nc1cc(Cl)ccc1[N+](=O)[O-],303.15,ethanol,CCO,0.027329999999999997,0.4762782487127966,-0.32213925195410353,5-chloro-2-nitroaniline,1635-61-6,74218,No,10.1016/j.molliq.2024.125240
Nc1cc(Cl)ccc1[N+](=O)[O-],308.15,ethanol,CCO,0.0317,0.5517293300627572,-0.25827392823035356,5-chloro-2-nitroaniline,1635-61-6,74218,No,10.1016/j.molliq.2024.125240
Nc1cc(Cl)ccc1[N+](=O)[O-],313.15,ethanol,CCO,0.037270000000000005,0.6488691882131936,-0.1878428479813179,5-chloro-2-nitroaniline,1635-61-6,74218,No,10.1016/j.molliq.2024.125240
Nc1cc(Cl)ccc1[N+](=O)[O-],318.15,ethanol,CCO,0.04406,0.7680125685189957,-0.11463167268491817,5-chloro-2-nitroaniline,1635-61-6,74218,No,10.1016/j.molliq.2024.125240
Nc1cc(Cl)ccc1[N+](=O)[O-],323.15,ethanol,CCO,0.0497,0.866413550343701,-0.062274764146495507,5-chloro-2-nitroaniline,1635-61-6,74218,No,10.1016/j.molliq.2024.125240
CCOC(=O)[C@@H](C)Oc1ccc(Oc2nc3ccc(Cl)cc3o2)cc1,278.15,ethanol,CCO,0.0009718000000000001,0.016947572282138043,-1.7708925051295836,Fenoxaprop-p-ethyl,71283-80-2,91707,No,10.1016/j.molliq.2024.125377
CCOC(=O)[C@@H](C)Oc1ccc(Oc2nc3ccc(Cl)cc3o2)cc1,283.15,ethanol,CCO,0.0012109999999999998,0.020991658498563312,-1.677953247538614,Fenoxaprop-p-ethyl,71283-80-2,91707,No,10.1016/j.molliq.2024.125377
CCOC(=O)[C@@H](C)Oc1ccc(Oc2nc3ccc(Cl)cc3o2)cc1,288.15,ethanol,CCO,0.001501,0.025885808080748453,-1.5869382730413224,Fenoxaprop-p-ethyl,71283-80-2,91707,No,10.1016/j.molliq.2024.125377
CCOC(=O)[C@@H](C)Oc1ccc(Oc2nc3ccc(Cl)cc3o2)cc1,293.15,ethanol,CCO,0.001861,0.03195407135868111,-1.4954737992908522,Fenoxaprop-p-ethyl,71283-80-2,91707,No,10.1016/j.molliq.2024.125377
CCOC(=O)[C@@H](C)Oc1ccc(Oc2nc3ccc(Cl)cc3o2)cc1,298.15,ethanol,CCO,0.002236,0.03820697630684733,-1.417857330937918,Fenoxaprop-p-ethyl,71283-80-2,91707,No,10.1016/j.molliq.2024.125377
CCOC(=O)[C@@H](C)Oc1ccc(Oc2nc3ccc(Cl)cc3o2)cc1,303.15,ethanol,CCO,0.002662,0.04524309661220903,-1.3444476779382082,Fenoxaprop-p-ethyl,71283-80-2,91707,No,10.1016/j.molliq.2024.125377
CCOC(=O)[C@@H](C)Oc1ccc(Oc2nc3ccc(Cl)cc3o2)cc1,308.15,ethanol,CCO,0.003142,0.05311896734624955,-1.2747503764146018,Fenoxaprop-p-ethyl,71283-80-2,91707,No,10.1016/j.molliq.2024.125377
CCOC(=O)[C@@H](C)Oc1ccc(Oc2nc3ccc(Cl)cc3o2)cc1,313.15,ethanol,CCO,0.003761,0.06327644312790813,-1.1987579412255729,Fenoxaprop-p-ethyl,71283-80-2,91707,No,10.1016/j.molliq.2024.125377
CCOC(=O)[C@@H](C)Oc1ccc(Oc2nc3ccc(Cl)cc3o2)cc1,318.15,ethanol,CCO,0.004463,0.07470057593297323,-1.1266760498104647,Fenoxaprop-p-ethyl,71283-80-2,91707,No,10.1016/j.molliq.2024.125377
CCOC(=O)[C@@H](C)Oc1ccc(Oc2nc3ccc(Cl)cc3o2)cc1,323.15,ethanol,CCO,0.005338,0.088906316925937,-1.0510673806651836,Fenoxaprop-p-ethyl,71283-80-2,91707,No,10.1016/j.molliq.2024.125377
Cc1c(C(=O)O)cccc1[N+](=O)[O-],278.15,ethanol,CCO,0.015223999999999998,0.26933926273495723,-0.5697003330116813,2-methyl-3-nitrobenzoic acid,1975-50-4,16096,No,10.1016/j.molliq.2024.125481
Cc1c(C(=O)O)cccc1[N+](=O)[O-],283.15,ethanol,CCO,0.018104000000000002,0.31921655776121416,-0.4959145898845048,2-methyl-3-nitrobenzoic acid,1975-50-4,16096,No,10.1016/j.molliq.2024.125481
Cc1c(C(=O)O)cccc1[N+](=O)[O-],288.15,ethanol,CCO,0.021579,0.37978186122151125,-0.42046578146188607,2-methyl-3-nitrobenzoic acid,1975-50-4,16096,No,10.1016/j.molliq.2024.125481
Cc1c(C(=O)O)cccc1[N+](=O)[O-],293.15,ethanol,CCO,0.025401,0.4466791752890949,-0.35000429437806596,2-methyl-3-nitrobenzoic acid,1975-50-4,16096,No,10.1016/j.molliq.2024.125481
Cc1c(C(=O)O)cccc1[N+](=O)[O-],298.15,ethanol,CCO,0.029693999999999998,0.5217454704233307,-0.28254131260978554,2-methyl-3-nitrobenzoic acid,1975-50-4,16096,No,10.1016/j.molliq.2024.125481
Cc1c(C(=O)O)cccc1[N+](=O)[O-],303.15,ethanol,CCO,0.034947,0.6138261305300803,-0.21195462762874726,2-methyl-3-nitrobenzoic acid,1975-50-4,16096,No,10.1016/j.molliq.2024.125481
Cc1c(C(=O)O)cccc1[N+](=O)[O-],308.15,ethanol,CCO,0.041003,0.7205682564600535,-0.14232487397572063,2-methyl-3-nitrobenzoic acid,1975-50-4,16096,No,10.1016/j.molliq.2024.125481
Cc1c(C(=O)O)cccc1[N+](=O)[O-],313.15,ethanol,CCO,0.047811,0.8416023351245141,-0.07489306818762213,2-methyl-3-nitrobenzoic acid,1975-50-4,16096,No,10.1016/j.molliq.2024.125481
Cc1ccc(CO)cc1,278.15,ethanol,CCO,0.2362,5.387764281806007,0.7314085868003347,p-methylbenzyl alcohol,589-18-4,11505,No,10.1016/j.molliq.2024.125614
Cc1ccc(CO)cc1,283.15,ethanol,CCO,0.2757,6.590140001746056,0.8188946408974881,p-methylbenzyl alcohol,589-18-4,11505,No,10.1016/j.molliq.2024.125614
Cc1ccc(CO)cc1,288.15,ethanol,CCO,0.3267,8.355437384866397,0.9219691889825004,p-methylbenzyl alcohol,589-18-4,11505,No,10.1016/j.molliq.2024.125614
Cc1ccc(CO)cc1,293.15,ethanol,CCO,0.3785,10.43747872891422,1.018595603421039,p-methylbenzyl alcohol,589-18-4,11505,No,10.1016/j.molliq.2024.125614
Cc1ccc(CO)cc1,298.15,ethanol,CCO,0.4395,13.368477904095645,1.126081962573676,p-methylbenzyl alcohol,589-18-4,11505,No,10.1016/j.molliq.2024.125614
Cc1ccc(CO)cc1,303.15,ethanol,CCO,0.5076,17.473914512330683,1.2423902066811177,p-methylbenzyl alcohol,589-18-4,11505,No,10.1016/j.molliq.2024.125614
Cc1ccc(CO)cc1,308.15,ethanol,CCO,0.5807,23.340153344884943,1.368103705034912,p-methylbenzyl alcohol,589-18-4,11505,No,10.1016/j.molliq.2024.125614
Cc1ccc(CO)cc1,313.15,ethanol,CCO,0.6621,32.842609806612316,1.5164376606147636,p-methylbenzyl alcohol,589-18-4,11505,No,10.1016/j.molliq.2024.125614
NC(=O)Cc1ccc(O)cc1,278.15,ethanol,CCO,0.00381,0.06663327287834331,-1.1763088546277658,4-hydroxyphenylacetamide,17194-82-0,86986,No,10.1016/j.molliq.2024.125673
NC(=O)Cc1ccc(O)cc1,283.15,ethanol,CCO,0.0045899999999999995,0.07983384493251598,-1.097812953871084,4-hydroxyphenylacetamide,17194-82-0,86986,No,10.1016/j.molliq.2024.125673
NC(=O)Cc1ccc(O)cc1,288.15,ethanol,CCO,0.00534,0.09244752159627334,-1.0341047272467248,4-hydroxyphenylacetamide,17194-82-0,86986,No,10.1016/j.molliq.2024.125673
NC(=O)Cc1ccc(O)cc1,293.15,ethanol,CCO,0.00638,0.11004522600965308,-0.9584287932981488,4-hydroxyphenylacetamide,17194-82-0,86986,No,10.1016/j.molliq.2024.125673
NC(=O)Cc1ccc(O)cc1,298.15,ethanol,CCO,0.00752,0.12917985028219256,-0.8888052231343717,4-hydroxyphenylacetamide,17194-82-0,86986,No,10.1016/j.molliq.2024.125673
NC(=O)Cc1ccc(O)cc1,303.15,ethanol,CCO,0.00902,0.15428662728306186,-0.8116717145645682,4-hydroxyphenylacetamide,17194-82-0,86986,No,10.1016/j.molliq.2024.125673
NC(=O)Cc1ccc(O)cc1,308.15,ethanol,CCO,0.01068,0.18193288453176837,-0.7400887947248295,4-hydroxyphenylacetamide,17194-82-0,86986,No,10.1016/j.molliq.2024.125673
NC(=O)Cc1ccc(O)cc1,313.15,ethanol,CCO,0.01263,0.21440044749272397,-0.6687743125267588,4-hydroxyphenylacetamide,17194-82-0,86986,No,10.1016/j.molliq.2024.125673
NC(=O)Cc1ccc(O)cc1,318.15,ethanol,CCO,0.015,0.25375201378025647,-0.5955905024967294,4-hydroxyphenylacetamide,17194-82-0,86986,No,10.1016/j.molliq.2024.125673
NC(=O)Cc1ccc(O)cc1,323.15,ethanol,CCO,0.01788,0.3016008323066356,-0.5205674643086285,4-hydroxyphenylacetamide,17194-82-0,86986,No,10.1016/j.molliq.2024.125673
CC1CCC(=O)C1=O,278.15,ethanol,CCO,0.044,0.8018684602240799,-0.0958968682297748,"3-methyl-1,2-cyclopentanedione",765-70-8,61209,No,10.1016/j.molliq.2024.125848
CC1CCC(=O)C1=O,283.15,ethanol,CCO,0.0503,0.9169758691115324,-0.03764209295549358,"3-methyl-1,2-cyclopentanedione",765-70-8,61209,No,10.1016/j.molliq.2024.125848
CC1CCC(=O)C1=O,288.15,ethanol,CCO,0.0645,1.1872565979650422,0.07454459177424756,"3-methyl-1,2-cyclopentanedione",765-70-8,61209,No,10.1016/j.molliq.2024.125848
CC1CCC(=O)C1=O,293.15,ethanol,CCO,0.0752,1.3936087744417676,0.14414087207779935,"3-methyl-1,2-cyclopentanedione",765-70-8,61209,No,10.1016/j.molliq.2024.125848
CC1CCC(=O)C1=O,298.15,ethanol,CCO,0.0939,1.766803138095024,0.24718816195614202,"3-methyl-1,2-cyclopentanedione",765-70-8,61209,No,10.1016/j.molliq.2024.125848
CC1CCC(=O)C1=O,303.15,ethanol,CCO,0.1111,2.118594254944016,0.3260477902588832,"3-methyl-1,2-cyclopentanedione",765-70-8,61209,No,10.1016/j.molliq.2024.125848
CC1CCC(=O)C1=O,308.15,ethanol,CCO,0.1453,2.865026555577686,0.4571286517440384,"3-methyl-1,2-cyclopentanedione",765-70-8,61209,No,10.1016/j.molliq.2024.125848
CC1CCC(=O)C1=O,313.15,ethanol,CCO,0.1874,3.8654052579418643,0.5871950330697092,"3-methyl-1,2-cyclopentanedione",765-70-8,61209,No,10.1016/j.molliq.2024.125848
Cc1cc(O)c2c(c1)C(=O)c1cc(O)cc(O)c1C2=O,283.15,ethanol,CCO,8.3746e-05,0.0014500293896193802,-2.838623195268355,Emodin,518-82-1,3220,No,10.1016/j.molliq.2024.125917
Cc1cc(O)c2c(c1)C(=O)c1cc(O)cc(O)c1C2=O,288.15,ethanol,CCO,9.386e-05,0.0016164042499450149,-2.7914500163553226,Emodin,518-82-1,3220,No,10.1016/j.molliq.2024.125917
Cc1cc(O)c2c(c1)C(=O)c1cc(O)cc(O)c1C2=O,293.15,ethanol,CCO,0.00011181300000000001,0.0019165127596426391,-2.717488284980491,Emodin,518-82-1,3220,No,10.1016/j.molliq.2024.125917
Cc1cc(O)c2c(c1)C(=O)c1cc(O)cc(O)c1C2=O,298.15,ethanol,CCO,0.00013153200000000001,0.002242782977934262,-2.649212748728918,Emodin,518-82-1,3220,No,10.1016/j.molliq.2024.125917
Cc1cc(O)c2c(c1)C(=O)c1cc(O)cc(O)c1C2=O,303.15,ethanol,CCO,0.000149792,0.0025394537971435652,-2.5952596843231306,Emodin,518-82-1,3220,No,10.1016/j.molliq.2024.125917
Cc1cc(O)c2c(c1)C(=O)c1cc(O)cc(O)c1C2=O,308.15,ethanol,CCO,0.00017032400000000002,0.0028709561962856887,-2.5419734337161515,Emodin,518-82-1,3220,No,10.1016/j.molliq.2024.125917
Cc1cc(O)c2c(c1)C(=O)c1cc(O)cc(O)c1C2=O,313.15,ethanol,CCO,0.000202993,0.0034030747932128013,-2.468128505819662,Emodin,518-82-1,3220,No,10.1016/j.molliq.2024.125917
Cc1cc(O)c2c(c1)C(=O)c1cc(O)cc(O)c1C2=O,318.15,ethanol,CCO,0.00023100899999999998,0.003850203696178506,-2.4145162934041857,Emodin,518-82-1,3220,No,10.1016/j.molliq.2024.125917
Cc1cc(O)c2c(c1)C(=O)c1cc(O)cc(O)c1C2=O,323.15,ethanol,CCO,0.00026789100000000003,0.00443919332682267,-2.3526959410426627,Emodin,518-82-1,3220,No,10.1016/j.molliq.2024.125917
O=C1c2cccc(O)c2C(=O)c2c(O)cc(CO)cc21,283.15,ethanol,CCO,2.2114999999999997e-05,0.0003828890163327004,-3.4169270917732777,Aloe-emodin,481-72-1,10207,No,10.1016/j.molliq.2024.125917
O=C1c2cccc(O)c2C(=O)c2c(O)cc(CO)cc21,288.15,ethanol,CCO,2.5818000000000003e-05,0.00044459285426075464,-3.3520375217991125,Aloe-emodin,481-72-1,10207,No,10.1016/j.molliq.2024.125917
O=C1c2cccc(O)c2C(=O)c2c(O)cc(CO)cc21,293.15,ethanol,CCO,3.1501e-05,0.0005398944638566312,-3.2676911258142605,Aloe-emodin,481-72-1,10207,No,10.1016/j.molliq.2024.125917
O=C1c2cccc(O)c2C(=O)c2c(O)cc(CO)cc21,298.15,ethanol,CCO,3.8299999999999996e-05,0.0006530013932045698,-3.1850858921393037,Aloe-emodin,481-72-1,10207,No,10.1016/j.molliq.2024.125917
O=C1c2cccc(O)c2C(=O)c2c(O)cc(CO)cc21,303.15,ethanol,CCO,4.451e-05,0.000754507502684394,-3.122336437322147,Aloe-emodin,481-72-1,10207,No,10.1016/j.molliq.2024.125917
O=C1c2cccc(O)c2C(=O)c2c(O)cc(CO)cc21,308.15,ethanol,CCO,5.2012e-05,0.000876602862313233,-3.057197115606754,Aloe-emodin,481-72-1,10207,No,10.1016/j.molliq.2024.125917
O=C1c2cccc(O)c2C(=O)c2c(O)cc(CO)cc21,313.15,ethanol,CCO,6.3242e-05,0.0010600719105751018,-2.974664673125165,Aloe-emodin,481-72-1,10207,No,10.1016/j.molliq.2024.125917
O=C1c2cccc(O)c2C(=O)c2c(O)cc(CO)cc21,318.15,ethanol,CCO,7.7146e-05,0.0012855867486930008,-2.8908986127530873,Aloe-emodin,481-72-1,10207,No,10.1016/j.molliq.2024.125917
O=C1c2cccc(O)c2C(=O)c2c(O)cc(CO)cc21,323.15,ethanol,CCO,9.0015e-05,0.0014913636618444695,-2.8264164430159795,Aloe-emodin,481-72-1,10207,No,10.1016/j.molliq.2024.125917
NC(=O)C[C@H](N)C(=O)O.O,278.15,ethanol,CCO,1.3205e-05,0.00023006602448775288,-3.638147512000421,L-asparagine monohydrate,5794-13-8,170358,No,10.1016/j.molliq.2024.126256
NC(=O)C[C@H](N)C(=O)O.O,283.15,ethanol,CCO,1.7743e-05,0.00030719286071199183,-3.512588881705029,L-asparagine monohydrate,5794-13-8,170358,No,10.1016/j.molliq.2024.126256
NC(=O)C[C@H](N)C(=O)O.O,288.15,ethanol,CCO,2.3597e-05,0.0004063457386630373,-3.3911042903219597,L-asparagine monohydrate,5794-13-8,170358,No,10.1016/j.molliq.2024.126256
NC(=O)C[C@H](N)C(=O)O.O,293.15,ethanol,CCO,3.108e-05,0.0005326787362972044,-3.273534639226254,L-asparagine monohydrate,5794-13-8,170358,No,10.1016/j.molliq.2024.126256
NC(=O)C[C@H](N)C(=O)O.O,298.15,ethanol,CCO,4.056e-05,0.0006915351532263651,-3.1601857382384155,L-asparagine monohydrate,5794-13-8,170358,No,10.1016/j.molliq.2024.126256
NC(=O)C[C@H](N)C(=O)O.O,303.15,ethanol,CCO,5.2471e-05,0.0008894648026060621,-3.0508712328936096,L-asparagine monohydrate,5794-13-8,170358,No,10.1016/j.molliq.2024.126256
NC(=O)C[C@H](N)C(=O)O.O,308.15,ethanol,CCO,6.7316e-05,0.0011345516692321902,-2.94517572088839,L-asparagine monohydrate,5794-13-8,170358,No,10.1016/j.molliq.2024.126256
NC(=O)C[C@H](N)C(=O)O.O,313.15,ethanol,CCO,8.5681e-05,0.0014362300312228797,-2.8427759965212402,L-asparagine monohydrate,5794-13-8,170358,No,10.1016/j.molliq.2024.126256
NC(=O)C[C@H](N)C(=O)O.O,318.15,ethanol,CCO,0.00010824,0.0018038036571746084,-2.7438107368862528,L-asparagine monohydrate,5794-13-8,170358,No,10.1016/j.molliq.2024.126256
NC(=O)C[C@H](N)C(=O)O.O,323.15,ethanol,CCO,0.00013575,0.002249201549996474,-2.6479716258763624,L-asparagine monohydrate,5794-13-8,170358,No,10.1016/j.molliq.2024.126256
CCN(CC)C(=S)SSC(=S)N(CC)CC,273.15,ethanol,CCO,0.000903,0.015832377583962994,-1.8004538612551613,Disulfiram,97-77-8,3117,Yes,10.1016/j.molliq.2024.126513
CCN(CC)C(=S)SSC(=S)N(CC)CC,278.15,ethanol,CCO,0.00111,0.01936037035771945,-1.7130863390330267,Disulfiram,97-77-8,3117,Yes,10.1016/j.molliq.2024.126513