SMILES_Solute,Temperature_K,Solvent,SMILES_Solvent,Solubility(mole_fraction),Solubility(mol/L),LogS(mol/L),Compound_Name,CAS,PubChem_CID,FDA_Approved,Source
CC1(C)[C@H](C(=O)O)[C@@H]1/C=C(\Cl)C(F)(F)F,283.15,ethanol,CCO,0.07701,1.4445297403277075,0.15972648763210429,Cyhalothric acid,68127-59-3,6440474,No,10.1016/j.molliq.2019.112365
CC1(C)[C@H](C(=O)O)[C@@H]1/C=C(\Cl)C(F)(F)F,288.15,ethanol,CCO,0.0817,1.5320260191317028,0.18526614119042686,Cyhalothric acid,68127-59-3,6440474,No,10.1016/j.molliq.2019.112365
CC1(C)[C@H](C(=O)O)[C@@H]1/C=C(\Cl)C(F)(F)F,293.15,ethanol,CCO,0.09435,1.785469211323234,0.2517523656082116,Cyhalothric acid,68127-59-3,6440474,No,10.1016/j.molliq.2019.112365
CC1(C)[C@H](C(=O)O)[C@@H]1/C=C(\Cl)C(F)(F)F,298.15,ethanol,CCO,0.10640000000000001,2.030005282061727,0.3074971679463541,Cyhalothric acid,68127-59-3,6440474,No,10.1016/j.molliq.2019.112365
CC1(C)[C@H](C(=O)O)[C@@H]1/C=C(\Cl)C(F)(F)F,303.15,ethanol,CCO,0.12118000000000001,2.33731719322237,0.3687176537351823,Cyhalothric acid,68127-59-3,6440474,No,10.1016/j.molliq.2019.112365
CC1(C)[C@H](C(=O)O)[C@@H]1/C=C(\Cl)C(F)(F)F,308.15,ethanol,CCO,0.14305,2.813255136131563,0.4492091204302074,Cyhalothric acid,68127-59-3,6440474,No,10.1016/j.molliq.2019.112365
CC1(C)[C@H](C(=O)O)[C@@H]1/C=C(\Cl)C(F)(F)F,313.15,ethanol,CCO,0.16785,3.38081956166769,0.5290219925749433,Cyhalothric acid,68127-59-3,6440474,No,10.1016/j.molliq.2019.112365
CC1(C)[C@H](C(=O)O)[C@@H]1/C=C(\Cl)C(F)(F)F,318.15,ethanol,CCO,0.19454999999999997,4.024826077905491,0.6047471182348464,Cyhalothric acid,68127-59-3,6440474,No,10.1016/j.molliq.2019.112365
CC1(C)[C@H](C(=O)O)[C@@H]1/C=C(\Cl)C(F)(F)F,323.15,ethanol,CCO,0.22843,4.904642792377802,0.6906073829803311,Cyhalothric acid,68127-59-3,6440474,No,10.1016/j.molliq.2019.112365
Cn1c(=O)c2c(ncn2C)n(C)c1=O,293.2,ethanol,CCO,0.000956,0.01639859797484661,-1.785193281087422,Caffeine,58-08-2,2519,Yes,10.1016/j.molliq.2020.112465
Cn1c(=O)c2c(ncn2C)n(C)c1=O,298.2,ethanol,CCO,0.00109,0.018596166061702543,-1.7305765842700294,Caffeine,58-08-2,2519,Yes,10.1016/j.molliq.2020.112465
Cn1c(=O)c2c(ncn2C)n(C)c1=O,303.2,ethanol,CCO,0.00123,0.02087080916293783,-1.6804607129763964,Caffeine,58-08-2,2519,Yes,10.1016/j.molliq.2020.112465
Cn1c(=O)c2c(ncn2C)n(C)c1=O,308.2,ethanol,CCO,0.00138,0.023288487096914032,-1.6328587238656385,Caffeine,58-08-2,2519,Yes,10.1016/j.molliq.2020.112465
Cn1c(=O)c2c(ncn2C)n(C)c1=O,313.2,ethanol,CCO,0.00152,0.025510307724372915,-1.5932843025744103,Caffeine,58-08-2,2519,Yes,10.1016/j.molliq.2020.112465
c1ccc(-c2cc3ccccc3[nH]2)cc1,296.95,ethanol,CCO,0.01085,0.18719517804271782,-0.7277053424377158,2-phenyl-1H-indole,948-65-2,13698,No,10.1016/j.molliq.2020.112491
c1ccc(-c2cc3ccccc3[nH]2)cc1,302.45,ethanol,CCO,0.01196,0.20531502045449757,-0.6875792773128857,2-phenyl-1H-indole,948-65-2,13698,No,10.1016/j.molliq.2020.112491
c1ccc(-c2cc3ccccc3[nH]2)cc1,308.55,ethanol,CCO,0.01401,0.23936296510576374,-0.6209430439647989,2-phenyl-1H-indole,948-65-2,13698,No,10.1016/j.molliq.2020.112491
c1ccc(-c2cc3ccccc3[nH]2)cc1,313.15,ethanol,CCO,0.01538,0.2618122402802852,-0.5820100531178896,2-phenyl-1H-indole,948-65-2,13698,No,10.1016/j.molliq.2020.112491
c1ccc(-c2cc3ccccc3[nH]2)cc1,318.25,ethanol,CCO,0.01729,0.29315107924513034,-0.5329085026071323,2-phenyl-1H-indole,948-65-2,13698,No,10.1016/j.molliq.2020.112491
c1ccc(-c2cc3ccccc3[nH]2)cc1,323.25,ethanol,CCO,0.01873,0.31622197283787906,-0.500007956191615,2-phenyl-1H-indole,948-65-2,13698,No,10.1016/j.molliq.2020.112491
c1ccc(-c2cc3ccccc3[nH]2)cc1,329.05,ethanol,CCO,0.02173,0.36555286401040504,-0.4370498091633901,2-phenyl-1H-indole,948-65-2,13698,No,10.1016/j.molliq.2020.112491
c1ccc(-c2cc3ccccc3[nH]2)cc1,334.05,ethanol,CCO,0.024929999999999997,0.4183363890743168,-0.3784743565840389,2-phenyl-1H-indole,948-65-2,13698,No,10.1016/j.molliq.2020.112491
c1ccc(-c2cc3ccccc3[nH]2)cc1,338.55,ethanol,CCO,0.027370000000000002,0.4580309119322106,-0.33910521101674296,2-phenyl-1H-indole,948-65-2,13698,No,10.1016/j.molliq.2020.112491
C[C@]12CC[C@@H]3c4ccc(O)cc4CC[C@H]3[C@@H]1CC[C@@H]2O,273.15,ethanol,CCO,0.365,10.068973144037296,1.002985182508194,Estradiol,50-28-2,5757,Yes,10.1016/j.molliq.2020.112599
C[C@]12CC[C@@H]3c4ccc(O)cc4CC[C@H]3[C@@H]1CC[C@@H]2O,278.15,ethanol,CCO,0.374,10.408918702525357,1.0174056165501884,Estradiol,50-28-2,5757,Yes,10.1016/j.molliq.2020.112599
C[C@]12CC[C@@H]3c4ccc(O)cc4CC[C@H]3[C@@H]1CC[C@@H]2O,283.15,ethanol,CCO,0.381,10.656404239605331,1.0276106866479315,Estradiol,50-28-2,5757,Yes,10.1016/j.molliq.2020.112599
C[C@]12CC[C@@H]3c4ccc(O)cc4CC[C@H]3[C@@H]1CC[C@@H]2O,288.15,ethanol,CCO,0.387,10.871241899474356,1.0362791594755048,Estradiol,50-28-2,5757,Yes,10.1016/j.molliq.2020.112599
C[C@]12CC[C@@H]3c4ccc(O)cc4CC[C@H]3[C@@H]1CC[C@@H]2O,293.15,ethanol,CCO,0.393,11.096211137773677,1.04517471186278,Estradiol,50-28-2,5757,Yes,10.1016/j.molliq.2020.112599
C[C@]12CC[C@@H]3c4ccc(O)cc4CC[C@H]3[C@@H]1CC[C@@H]2O,298.15,ethanol,CCO,0.398,11.271592538968521,1.0519852809107406,Estradiol,50-28-2,5757,Yes,10.1016/j.molliq.2020.112599
C[C@]12CC[C@@H]3c4ccc(O)cc4CC[C@H]3[C@@H]1CC[C@@H]2O,303.15,ethanol,CCO,0.40199999999999997,11.39492593304314,1.0567115066137882,Estradiol,50-28-2,5757,Yes,10.1016/j.molliq.2020.112599
C[C@]12CC[C@@H]3c4ccc(O)cc4CC[C@H]3[C@@H]1CC[C@@H]2O,308.15,ethanol,CCO,0.40700000000000003,11.566886051888515,1.0632164572661136,Estradiol,50-28-2,5757,Yes,10.1016/j.molliq.2020.112599
C[C@]12CC[C@@H]3c4ccc(O)cc4CC[C@H]3[C@@H]1CC[C@@H]2O,313.15,ethanol,CCO,0.41100000000000003,11.695769256722432,1.0680287915973101,Estradiol,50-28-2,5757,Yes,10.1016/j.molliq.2020.112599
C[C@]12CC[C@@H]3c4ccc(O)cc4CC[C@H]3[C@@H]1CC[C@@H]2O,318.15,ethanol,CCO,0.414,11.772188134180977,1.0708571940480094,Estradiol,50-28-2,5757,Yes,10.1016/j.molliq.2020.112599
Nc1ccc(S(N)(=O)=O)cc1,278.15,ethanol,CCO,0.0060878,0.10671382882021577,-0.9717792976218663,Sulfanilamide,63-74-1,5333,Yes,10.1016/j.molliq.2020.112670
Nc1ccc(S(N)(=O)=O)cc1,283.15,ethanol,CCO,0.0068807,0.1199520186400874,-0.9209924390102471,Sulfanilamide,63-74-1,5333,Yes,10.1016/j.molliq.2020.112670
Nc1ccc(S(N)(=O)=O)cc1,288.15,ethanol,CCO,0.0081353,0.14123743036543945,-0.8500501924701837,Sulfanilamide,63-74-1,5333,Yes,10.1016/j.molliq.2020.112670
Nc1ccc(S(N)(=O)=O)cc1,293.15,ethanol,CCO,0.0096951,0.1677854193126985,-0.7752457824058342,Sulfanilamide,63-74-1,5333,Yes,10.1016/j.molliq.2020.112670
Nc1ccc(S(N)(=O)=O)cc1,298.15,ethanol,CCO,0.011647000000000001,0.20090960079742876,-0.6969993092760485,Sulfanilamide,63-74-1,5333,Yes,10.1016/j.molliq.2020.112670
Nc1ccc(S(N)(=O)=O)cc1,303.15,ethanol,CCO,0.0139208,0.23929798048940076,-0.6210609665182396,Sulfanilamide,63-74-1,5333,Yes,10.1016/j.molliq.2020.112670
Nc1ccc(S(N)(=O)=O)cc1,308.15,ethanol,CCO,0.0164755,0.2823125351874821,-0.5492698379639895,Sulfanilamide,63-74-1,5333,Yes,10.1016/j.molliq.2020.112670
Nc1ccc(S(N)(=O)=O)cc1,313.15,ethanol,CCO,0.019331499999999998,0.33040422542628106,-0.48095440727301314,Sulfanilamide,63-74-1,5333,Yes,10.1016/j.molliq.2020.112670
Nc1ccc(S(N)(=O)=O)cc1,318.15,ethanol,CCO,0.022448199999999998,0.3826451492668265,-0.41720378778338063,Sulfanilamide,63-74-1,5333,Yes,10.1016/j.molliq.2020.112670
Nc1ccc(O)c(C(=O)O)c1,293.2,ethanol,CCO,5.3899999999999996e-05,0.0009237312089116846,-3.0344543831832835,Mesalazine,89-57-6,4075,Yes,10.1016/j.molliq.2020.112714
Nc1ccc(O)c(C(=O)O)c1,298.2,ethanol,CCO,6.12e-05,0.0010430407606363413,-2.9816987195949936,Mesalazine,89-57-6,4075,Yes,10.1016/j.molliq.2020.112714
Nc1ccc(O)c(C(=O)O)c1,303.2,ethanol,CCO,6.51e-05,0.0011033388909432226,-2.957291073360957,Mesalazine,89-57-6,4075,Yes,10.1016/j.molliq.2020.112714
Nc1ccc(O)c(C(=O)O)c1,308.2,ethanol,CCO,7.69e-05,0.0012960512873041315,-2.8873778122366747,Mesalazine,89-57-6,4075,Yes,10.1016/j.molliq.2020.112714
Nc1ccc(O)c(C(=O)O)c1,313.2,ethanol,CCO,8.369999999999999e-05,0.001402727430088587,-2.8530267103748814,Mesalazine,89-57-6,4075,Yes,10.1016/j.molliq.2020.112714
C[C@@H](O[C@H]1OCCN(Cc2n[nH]c(=O)[nH]2)[C@H]1c1ccc(F)cc1)c1cc(C(F)(F)F)cc(C(F)(F)F)c1,283.55,ethanol,CCO,0.001664,0.028868496564376952,-1.539575833050235,Aprepitant,170729-80-3,135413536,Yes,10.1016/j.molliq.2020.112723
C[C@@H](O[C@H]1OCCN(Cc2n[nH]c(=O)[nH]2)[C@H]1c1ccc(F)cc1)c1cc(C(F)(F)F)cc(C(F)(F)F)c1,290.85,ethanol,CCO,0.0020859999999999997,0.03591557337406195,-1.4447171958824023,Aprepitant,170729-80-3,135413536,Yes,10.1016/j.molliq.2020.112723
C[C@@H](O[C@H]1OCCN(Cc2n[nH]c(=O)[nH]2)[C@H]1c1ccc(F)cc1)c1cc(C(F)(F)F)cc(C(F)(F)F)c1,293.55,ethanol,CCO,0.0022299999999999998,0.03828596402580149,-1.416960413064885,Aprepitant,170729-80-3,135413536,Yes,10.1016/j.molliq.2020.112723
C[C@@H](O[C@H]1OCCN(Cc2n[nH]c(=O)[nH]2)[C@H]1c1ccc(F)cc1)c1cc(C(F)(F)F)cc(C(F)(F)F)c1,295.95,ethanol,CCO,0.002397,0.04105062705690021,-1.3866802045549749,Aprepitant,170729-80-3,135413536,Yes,10.1016/j.molliq.2020.112723
C[C@@H](O[C@H]1OCCN(Cc2n[nH]c(=O)[nH]2)[C@H]1c1ccc(F)cc1)c1cc(C(F)(F)F)cc(C(F)(F)F)c1,298.35,ethanol,CCO,0.002513,0.04292754092213735,-1.3672639891011473,Aprepitant,170729-80-3,135413536,Yes,10.1016/j.molliq.2020.112723
C[C@@H](O[C@H]1OCCN(Cc2n[nH]c(=O)[nH]2)[C@H]1c1ccc(F)cc1)c1cc(C(F)(F)F)cc(C(F)(F)F)c1,301.55,ethanol,CCO,0.0027919999999999998,0.04753687334707686,-1.3229693866121865,Aprepitant,170729-80-3,135413536,Yes,10.1016/j.molliq.2020.112723
C[C@@H](O[C@H]1OCCN(Cc2n[nH]c(=O)[nH]2)[C@H]1c1ccc(F)cc1)c1cc(C(F)(F)F)cc(C(F)(F)F)c1,303.85,ethanol,CCO,0.002943,0.049986631813898806,-1.301146125778299,Aprepitant,170729-80-3,135413536,Yes,10.1016/j.molliq.2020.112723
C[C@@H](O[C@H]1OCCN(Cc2n[nH]c(=O)[nH]2)[C@H]1c1ccc(F)cc1)c1cc(C(F)(F)F)cc(C(F)(F)F)c1,306.25,ethanol,CCO,0.003163,0.05359072511513407,-1.270910366647917,Aprepitant,170729-80-3,135413536,Yes,10.1016/j.molliq.2020.112723
C[C@@H](O[C@H]1OCCN(Cc2n[nH]c(=O)[nH]2)[C@H]1c1ccc(F)cc1)c1cc(C(F)(F)F)cc(C(F)(F)F)c1,308.25,ethanol,CCO,0.003333,0.0563538047427751,-1.2490767571154677,Aprepitant,170729-80-3,135413536,Yes,10.1016/j.molliq.2020.112723
C[C@@H](O[C@H]1OCCN(Cc2n[nH]c(=O)[nH]2)[C@H]1c1ccc(F)cc1)c1cc(C(F)(F)F)cc(C(F)(F)F)c1,315.25,ethanol,CCO,0.003958000000000001,0.06643557655325862,-1.1775992916701383,Aprepitant,170729-80-3,135413536,Yes,10.1016/j.molliq.2020.112723
C[C@@H](O[C@H]1OCCN(Cc2n[nH]c(=O)[nH]2)[C@H]1c1ccc(F)cc1)c1cc(C(F)(F)F)cc(C(F)(F)F)c1,318.45,ethanol,CCO,0.004325,0.07235882337236799,-1.1405085038222091,Aprepitant,170729-80-3,135413536,Yes,10.1016/j.molliq.2020.112723
C[C@@H](O[C@H]1OCCN(Cc2n[nH]c(=O)[nH]2)[C@H]1c1ccc(F)cc1)c1cc(C(F)(F)F)cc(C(F)(F)F)c1,324.85,ethanol,CCO,0.005053,0.0839838600830564,-1.0758041681090735,Aprepitant,170729-80-3,135413536,Yes,10.1016/j.molliq.2020.112723
Cn1c(=O)c2c(ncn2CC2OCCO2)n(C)c1=O,278.15,ethanol,CCO,0.000992,0.017300197204500198,-1.7619489463314295,Doxofylline,69975-86-6,50942,No,10.1016/j.molliq.2020.112952
Cn1c(=O)c2c(ncn2CC2OCCO2)n(C)c1=O,283.15,ethanol,CCO,0.00124,0.021494973026793294,-1.667663095525908,Doxofylline,69975-86-6,50942,No,10.1016/j.molliq.2020.112952
Cn1c(=O)c2c(ncn2CC2OCCO2)n(C)c1=O,288.15,ethanol,CCO,0.00147,0.025350404081170737,-1.5960151136945884,Doxofylline,69975-86-6,50942,No,10.1016/j.molliq.2020.112952
Cn1c(=O)c2c(ncn2CC2OCCO2)n(C)c1=O,293.15,ethanol,CCO,0.00178,0.030560790792646397,-1.5148354121238599,Doxofylline,69975-86-6,50942,No,10.1016/j.molliq.2020.112952
Cn1c(=O)c2c(ncn2CC2OCCO2)n(C)c1=O,298.15,ethanol,CCO,0.00214,0.036563087308605156,-1.436957140496128,Doxofylline,69975-86-6,50942,No,10.1016/j.molliq.2020.112952
Cn1c(=O)c2c(ncn2CC2OCCO2)n(C)c1=O,303.15,ethanol,CCO,0.00269,0.045720265510272036,-1.3398912562008325,Doxofylline,69975-86-6,50942,No,10.1016/j.molliq.2020.112952
Cn1c(=O)c2c(ncn2CC2OCCO2)n(C)c1=O,308.15,ethanol,CCO,0.0033,0.05579897522990644,-1.253373776977898,Doxofylline,69975-86-6,50942,No,10.1016/j.molliq.2020.112952
Cn1c(=O)c2c(ncn2CC2OCCO2)n(C)c1=O,313.15,ethanol,CCO,0.00443,0.07458202818654068,-1.1273658105932942,Doxofylline,69975-86-6,50942,No,10.1016/j.molliq.2020.112952
Cn1c(=O)c2c(ncn2CC2OCCO2)n(C)c1=O,318.15,ethanol,CCO,0.005410000000000001,0.09063744314293129,-1.0426923542984352,Doxofylline,69975-86-6,50942,No,10.1016/j.molliq.2020.112952
Cn1c(=O)c2c(ncn2CC2OCCO2)n(C)c1=O,323.15,ethanol,CCO,0.00633,0.1055336862687684,-0.976608891783449,Doxofylline,69975-86-6,50942,No,10.1016/j.molliq.2020.112952
CCN(CC)CCNC(=O)c1c(C)[nH]c(/C=C2\C(=O)Nc3ccc(F)cc32)c1C.O=C(O)C[C@H](O)C(=O)O,298.2,ethanol,CCO,0.00277,0.047337760998632204,-1.3247922873645788,Sunitinib malate,341031-54-7,6456015,Yes,10.1016/j.molliq.2020.112970
CCN(CC)CCNC(=O)c1c(C)[nH]c(/C=C2\C(=O)Nc3ccc(F)cc32)c1C.O=C(O)C[C@H](O)C(=O)O,303.2,ethanol,CCO,0.00321,0.05457591486330668,-1.2629989754217439,Sunitinib malate,341031-54-7,6456015,Yes,10.1016/j.molliq.2020.112970
CCN(CC)CCNC(=O)c1c(C)[nH]c(/C=C2\C(=O)Nc3ccc(F)cc32)c1C.O=C(O)C[C@H](O)C(=O)O,308.2,ethanol,CCO,0.00372,0.06292510910380782,-1.2011760227698165,Sunitinib malate,341031-54-7,6456015,Yes,10.1016/j.molliq.2020.112970
CCN(CC)CCNC(=O)c1c(C)[nH]c(/C=C2\C(=O)Nc3ccc(F)cc32)c1C.O=C(O)C[C@H](O)C(=O)O,313.2,ethanol,CCO,0.0043,0.07236880946194757,-1.1404485718863078,Sunitinib malate,341031-54-7,6456015,Yes,10.1016/j.molliq.2020.112970
CCN(CC)CCNC(=O)c1c(C)[nH]c(/C=C2\C(=O)Nc3ccc(F)cc32)c1C.O=C(O)C[C@H](O)C(=O)O,318.2,ethanol,CCO,0.0051600000000000005,0.08642573107668933,-1.0633569380658086,Sunitinib malate,341031-54-7,6456015,Yes,10.1016/j.molliq.2020.112970
OC[C@H]1O[C@@H](c2ccc(Cl)c(Cc3ccc(O[C@H]4CCOC4)cc3)c2)[C@H](O)[C@@H](O)[C@@H]1O,278.15,ethanol,CCO,2.33e-06,4.059432089794801e-05,-4.391534719506521,Empagliflozin,864070-44-0,11949646,Yes,10.1016/j.molliq.2020.113004
OC[C@H]1O[C@@H](c2ccc(Cl)c(Cc3ccc(O[C@H]4CCOC4)cc3)c2)[C@H](O)[C@@H](O)[C@@H]1O,283.15,ethanol,CCO,3.77e-06,6.527086188655662e-05,-4.185280652508494,Empagliflozin,864070-44-0,11949646,Yes,10.1016/j.molliq.2020.113004
OC[C@H]1O[C@@H](c2ccc(Cl)c(Cc3ccc(O[C@H]4CCOC4)cc3)c2)[C@H](O)[C@@H](O)[C@@H]1O,288.15,ethanol,CCO,4.84e-06,8.334434399744783e-05,-4.0791238673902,Empagliflozin,864070-44-0,11949646,Yes,10.1016/j.molliq.2020.113004
OC[C@H]1O[C@@H](c2ccc(Cl)c(Cc3ccc(O[C@H]4CCOC4)cc3)c2)[C@H](O)[C@@H](O)[C@@H]1O,293.15,ethanol,CCO,6.6e-06,0.00011311433703846391,-3.946482345542481,Empagliflozin,864070-44-0,11949646,Yes,10.1016/j.molliq.2020.113004
OC[C@H]1O[C@@H](c2ccc(Cl)c(Cc3ccc(O[C@H]4CCOC4)cc3)c2)[C@H](O)[C@@H](O)[C@@H]1O,298.15,ethanol,CCO,8.45e-06,0.00014406519746769996,-3.8414409211515532,Empagliflozin,864070-44-0,11949646,Yes,10.1016/j.molliq.2020.113004
OC[C@H]1O[C@@H](c2ccc(Cl)c(Cc3ccc(O[C@H]4CCOC4)cc3)c2)[C@H](O)[C@@H](O)[C@@H]1O,303.15,ethanol,CCO,1.1000000000000001e-05,0.0001864593216683538,-3.72941590005847,Empagliflozin,864070-44-0,11949646,Yes,10.1016/j.molliq.2020.113004
OC[C@H]1O[C@@H](c2ccc(Cl)c(Cc3ccc(O[C@H]4CCOC4)cc3)c2)[C@H](O)[C@@H](O)[C@@H]1O,308.15,ethanol,CCO,1.4e-05,0.00023594504279516533,-3.627189142751298,Empagliflozin,864070-44-0,11949646,Yes,10.1016/j.molliq.2020.113004
OC[C@H]1O[C@@H](c2ccc(Cl)c(Cc3ccc(O[C@H]4CCOC4)cc3)c2)[C@H](O)[C@@H](O)[C@@H]1O,313.15,ethanol,CCO,1.8500000000000002e-05,0.000310085906189936,-3.508517972566409,Empagliflozin,864070-44-0,11949646,Yes,10.1016/j.molliq.2020.113004
OC[C@H]1O[C@@H](c2ccc(Cl)c(Cc3ccc(O[C@H]4CCOC4)cc3)c2)[C@H](O)[C@@H](O)[C@@H]1O,318.15,ethanol,CCO,2.43e-05,0.0004049219279920056,-3.392628703972351,Empagliflozin,864070-44-0,11949646,Yes,10.1016/j.molliq.2020.113004
O=C(CN1C(=O)S/C(=C\c2ccc(Cl)cc2)C1=O)N1CCN(CC(O)(Cn2cncn2)c2cc(F)ccc2F)CC1,293.15,ethanol,CCO,0.000161,0.0027597303874860443,-2.559133344364675,"((5Z)-5-[(4-chlorophenyl)methylidene]-3-(2-{4-[2-(2,5-difluorophenyl)-2-hydroxy-3-(1,2,4-triazol-1-yl)propyl]piperazin-1-yl}-2-oxoethyl)-1,3-thiazolidine-2,4-dione) (L-173)",,,No,10.1016/j.molliq.2020.113148
O=C(CN1C(=O)S/C(=C\c2ccc(Cl)cc2)C1=O)N1CCN(CC(O)(Cn2cncn2)c2cc(F)ccc2F)CC1,298.15,ethanol,CCO,0.0002,0.003410480442047731,-2.4671844366577127,"((5Z)-5-[(4-chlorophenyl)methylidene]-3-(2-{4-[2-(2,5-difluorophenyl)-2-hydroxy-3-(1,2,4-triazol-1-yl)propyl]piperazin-1-yl}-2-oxoethyl)-1,3-thiazolidine-2,4-dione) (L-173)",,,No,10.1016/j.molliq.2020.113148
O=C(CN1C(=O)S/C(=C\c2ccc(Cl)cc2)C1=O)N1CCN(CC(O)(Cn2cncn2)c2cc(F)ccc2F)CC1,303.15,ethanol,CCO,0.000254,0.00430656175181379,-2.3658693210520854,"((5Z)-5-[(4-chlorophenyl)methylidene]-3-(2-{4-[2-(2,5-difluorophenyl)-2-hydroxy-3-(1,2,4-triazol-1-yl)propyl]piperazin-1-yl}-2-oxoethyl)-1,3-thiazolidine-2,4-dione) (L-173)",,,No,10.1016/j.molliq.2020.113148
O=C(CN1C(=O)S/C(=C\c2ccc(Cl)cc2)C1=O)N1CCN(CC(O)(Cn2cncn2)c2cc(F)ccc2F)CC1,308.15,ethanol,CCO,0.000312,0.00525977124463866,-2.2790331435556683,"((5Z)-5-[(4-chlorophenyl)methylidene]-3-(2-{4-[2-(2,5-difluorophenyl)-2-hydroxy-3-(1,2,4-triazol-1-yl)propyl]piperazin-1-yl}-2-oxoethyl)-1,3-thiazolidine-2,4-dione) (L-173)",,,No,10.1016/j.molliq.2020.113148
O=C(CN1C(=O)S/C(=C\c2ccc(Cl)cc2)C1=O)N1CCN(CC(O)(Cn2cncn2)c2cc(F)ccc2F)CC1,313.15,ethanol,CCO,0.000377,0.006321314159192239,-2.199192625395508,"((5Z)-5-[(4-chlorophenyl)methylidene]-3-(2-{4-[2-(2,5-difluorophenyl)-2-hydroxy-3-(1,2,4-triazol-1-yl)propyl]piperazin-1-yl}-2-oxoethyl)-1,3-thiazolidine-2,4-dione) (L-173)",,,No,10.1016/j.molliq.2020.113148
Nc1nc(N)nc(-c2ccncc2)n1,288.15,ethanol,CCO,0.0007339,0.012646909255604117,-1.8980155975903352,"2,4-diamino-6-(4-pyridyl)-1,3,5-triazine",33237-20-6,99551,No,10.1016/j.molliq.2020.113170
Nc1nc(N)nc(-c2ccncc2)n1,293.15,ethanol,CCO,0.0008133999999999999,0.013951741452490635,-1.855371580490424,"2,4-diamino-6-(4-pyridyl)-1,3,5-triazine",33237-20-6,99551,No,10.1016/j.molliq.2020.113170
Nc1nc(N)nc(-c2ccncc2)n1,298.15,ethanol,CCO,0.0009246,0.01577808617184443,-1.8019456763746327,"2,4-diamino-6-(4-pyridyl)-1,3,5-triazine",33237-20-6,99551,No,10.1016/j.molliq.2020.113170
Nc1nc(N)nc(-c2ccncc2)n1,303.15,ethanol,CCO,0.001097,0.018615296058462454,-1.7301300523527006,"2,4-diamino-6-(4-pyridyl)-1,3,5-triazine",33237-20-6,99551,No,10.1016/j.molliq.2020.113170
Nc1nc(N)nc(-c2ccncc2)n1,308.15,ethanol,CCO,0.0012180000000000001,0.02055196363382326,-1.6871466772140662,"2,4-diamino-6-(4-pyridyl)-1,3,5-triazine",33237-20-6,99551,No,10.1016/j.molliq.2020.113170
Nc1nc(N)nc(-c2ccncc2)n1,313.15,ethanol,CCO,0.001372,0.023027809976483477,-1.6377473629630022,"2,4-diamino-6-(4-pyridyl)-1,3,5-triazine",33237-20-6,99551,No,10.1016/j.molliq.2020.113170
Nc1nc(N)nc(-c2ccncc2)n1,318.15,ethanol,CCO,0.001593,0.026586589342333627,-1.5753373725146085,"2,4-diamino-6-(4-pyridyl)-1,3,5-triazine",33237-20-6,99551,No,10.1016/j.molliq.2020.113170
CC(=O)Oc1ccc(C(c2ccc(OC(C)=O)cc2)c2ccccn2)cc1,288.15,ethanol,CCO,0.000471,0.008114358232086318,-2.0907458230078264,Bisacodyl,603-50-9,2391,Yes,10.1016/j.molliq.2020.113264
CC(=O)Oc1ccc(C(c2ccc(OC(C)=O)cc2)c2ccccn2)cc1,293.15,ethanol,CCO,0.0006389999999999999,0.010958454622075231,-1.9602506864014846,Bisacodyl,603-50-9,2391,Yes,10.1016/j.molliq.2020.113264
CC(=O)Oc1ccc(C(c2ccc(OC(C)=O)cc2)c2ccccn2)cc1,298.15,ethanol,CCO,0.000852,0.014538127438364195,-1.8374915285222002,Bisacodyl,603-50-9,2391,Yes,10.1016/j.molliq.2020.113264
CC(=O)Oc1ccc(C(c2ccc(OC(C)=O)cc2)c2ccccn2)cc1,303.15,ethanol,CCO,0.00113,0.01917591567524679,-1.7172438887499306,Bisacodyl,603-50-9,2391,Yes,10.1016/j.molliq.2020.113264
CC(=O)Oc1ccc(C(c2ccc(OC(C)=O)cc2)c2ccccn2)cc1,308.15,ethanol,CCO,0.00149,0.025148413418221983,-1.599489408836534,Bisacodyl,603-50-9,2391,Yes,10.1016/j.molliq.2020.113264
CC(C)(OOC(C)(C)c1ccccc1)c1ccccc1,274.15,ethanol,CCO,0.015179999999999999,0.269718315584228,-0.5690895611960473,Dicumyl peroxide (dcp),80-43-3,6641,No,10.1016/j.molliq.2020.113268
CC(C)(OOC(C)(C)c1ccccc1)c1ccccc1,278.15,ethanol,CCO,0.01882,0.33417909573803595,-0.47602072047962685,Dicumyl peroxide (dcp),80-43-3,6641,No,10.1016/j.molliq.2020.113268
CC(C)(OOC(C)(C)c1ccccc1)c1ccccc1,282.15,ethanol,CCO,0.02364,0.42000109749469444,-0.3767495747562258,Dicumyl peroxide (dcp),80-43-3,6641,No,10.1016/j.molliq.2020.113268
CC(C)(OOC(C)(C)c1ccccc1)c1ccccc1,286.15,ethanol,CCO,0.0303,0.5396528068895827,-0.2678855597068739,Dicumyl peroxide (dcp),80-43-3,6641,No,10.1016/j.molliq.2020.113268