SMILES_Solute,Temperature_K,Solvent,SMILES_Solvent,Solubility(mole_fraction),Solubility(mol/L),LogS(mol/L),Compound_Name,CAS,PubChem_CID,FDA_Approved,Source
Cn1c(=O)c2[nH]cnc2n(C)c1=O,313.0,ethanol,CCO,0.0013,0.02181815822476444,-1.6611819130777095,Theophylline,58-55-9,2153,Yes,10.1016/j.jct.2014.05.005
Cn1c(=O)c2[nH]cnc2n(C)c1=O,318.6,ethanol,CCO,0.002,0.0333770736763757,-1.4765517426092265,Theophylline,58-55-9,2153,Yes,10.1016/j.jct.2014.05.005
Cn1c(=O)c2[nH]cnc2n(C)c1=O,321.3,ethanol,CCO,0.0027,0.0449520252272449,-1.3472507371853986,Theophylline,58-55-9,2153,Yes,10.1016/j.jct.2014.05.005
Cn1c(=O)c2[nH]cnc2n(C)c1=O,325.2,ethanol,CCO,0.0036,0.05972289828070485,-1.2238591246446873,Theophylline,58-55-9,2153,Yes,10.1016/j.jct.2014.05.005
Cn1c(=O)c2[nH]cnc2n(C)c1=O,332.8,ethanol,CCO,0.005,0.0823407758212073,-1.0843850453627986,Theophylline,58-55-9,2153,Yes,10.1016/j.jct.2014.05.005
Cn1c(=O)c2[nH]cnc2n(C)c1=O,340.1,ethanol,CCO,0.0083,0.1359816368450991,-0.8665197354187414,Theophylline,58-55-9,2153,Yes,10.1016/j.jct.2014.05.005
Cn1c(=O)c2[nH]cnc2n(C)c1=O,345.3,ethanol,CCO,0.0123,0.20110275326711907,-0.6965819835030507,Theophylline,58-55-9,2153,Yes,10.1016/j.jct.2014.05.005
Cn1c(=O)c2c(ncn2CCO)n(C)c1=O,313.9,ethanol,CCO,0.001,0.01676107036076159,-1.7756982508054209,7-(-hydroxyethyl) theophylline,519-37-9,1892,No,10.1016/j.jct.2014.05.005
Cn1c(=O)c2c(ncn2CCO)n(C)c1=O,321.2,ethanol,CCO,0.0016,0.026611927893443684,-1.5749236619703872,7-(-hydroxyethyl) theophylline,519-37-9,1892,No,10.1016/j.jct.2014.05.005
Cn1c(=O)c2c(ncn2CCO)n(C)c1=O,325.7,ethanol,CCO,0.0023,0.03808471512064898,-1.4192492886459642,7-(-hydroxyethyl) theophylline,519-37-9,1892,No,10.1016/j.jct.2014.05.005
Cn1c(=O)c2c(ncn2CCO)n(C)c1=O,327.4,ethanol,CCO,0.0029,0.04795496977182665,-1.3191663784278809,7-(-hydroxyethyl) theophylline,519-37-9,1892,No,10.1016/j.jct.2014.05.005
Cn1c(=O)c2c(ncn2CCO)n(C)c1=O,332.5,ethanol,CCO,0.004,0.06582933648068187,-1.1815805223077502,7-(-hydroxyethyl) theophylline,519-37-9,1892,No,10.1016/j.jct.2014.05.005
Cn1c(=O)c2c(ncn2CCO)n(C)c1=O,336.8,ethanol,CCO,0.0055,0.0902007878162014,-1.0447896693013523,7-(-hydroxyethyl) theophylline,519-37-9,1892,No,10.1016/j.jct.2014.05.005
Cn1c(=O)c2c(ncn2CCO)n(C)c1=O,339.1,ethanol,CCO,0.0065,0.10642280278856608,-0.9729653075276347,7-(-hydroxyethyl) theophylline,519-37-9,1892,No,10.1016/j.jct.2014.05.005
Cn1c(=O)c2c(ncn2CCO)n(C)c1=O,339.7,ethanol,CCO,0.0068,0.11129033429430406,-0.9535425530501314,7-(-hydroxyethyl) theophylline,519-37-9,1892,No,10.1016/j.jct.2014.05.005
Cn1c(=O)c2c(ncn2CCO)n(C)c1=O,342.4,ethanol,CCO,0.0077,0.1257368309950852,-0.900537489577457,7-(-hydroxyethyl) theophylline,519-37-9,1892,No,10.1016/j.jct.2014.05.005
Cn1c(=O)c2c(ncn2CCO)n(C)c1=O,343.8,ethanol,CCO,0.0081,0.1321051004649186,-0.8790804143233448,7-(-hydroxyethyl) theophylline,519-37-9,1892,No,10.1016/j.jct.2014.05.005
Cn1c(=O)c2c(ncn2CCO)n(C)c1=O,344.9,ethanol,CCO,0.0086,0.14014948083644901,-0.8534085066820255,7-(-hydroxyethyl) theophylline,519-37-9,1892,No,10.1016/j.jct.2014.05.005
Cn1cnc2c1c(=O)[nH]c(=O)n2C,293.15,ethanol,CCO,1.5295000000000002e-05,0.0002621361861078642,-3.5814730235317915,Theobromine,83-67-0,5429,No,10.1016/j.jct.2014.05.005
Cn1cnc2c1c(=O)[nH]c(=O)n2C,298.15,ethanol,CCO,2.3262999999999997e-05,0.0003966199211794848,-3.4016254761089195,Theobromine,83-67-0,5429,No,10.1016/j.jct.2014.05.005
Cn1cnc2c1c(=O)[nH]c(=O)n2C,303.15,ethanol,CCO,3.1469999999999995e-05,0.0005334540883710437,-3.2729029521066466,Theobromine,83-67-0,5429,No,10.1016/j.jct.2014.05.005
Cn1cnc2c1c(=O)[nH]c(=O)n2C,308.15,ethanol,CCO,3.8528e-05,0.000649336684925483,-3.1875300605329904,Theobromine,83-67-0,5429,No,10.1016/j.jct.2014.05.005
Cn1cnc2c1c(=O)[nH]c(=O)n2C,313.15,ethanol,CCO,5.4889e-05,0.0009200499832836002,-3.036188578225535,Theobromine,83-67-0,5429,No,10.1016/j.jct.2014.05.005
Cn1cnc2c1c(=O)[nH]c(=O)n2C,318.15,ethanol,CCO,6.341099999999999e-05,0.0010566875997262226,-2.9760533890108642,Theobromine,83-67-0,5429,No,10.1016/j.jct.2014.05.005
O=C(O)C(=O)O,288.15,ethanol,CCO,0.05049000000000001,0.9156605354428676,-0.038265503306648456,Oxalic acid,144-62-7,971,No,10.1016/j.jct.2014.05.009
O=C(O)C(=O)O,293.15,ethanol,CCO,0.05669,1.0299659587675085,0.012822871148146993,Oxalic acid,144-62-7,971,No,10.1016/j.jct.2014.05.009
O=C(O)C(=O)O,298.15,ethanol,CCO,0.06576,1.2000574757572195,0.0792020467196592,Oxalic acid,144-62-7,971,No,10.1016/j.jct.2014.05.009
O=C(O)C(=O)O,303.15,ethanol,CCO,0.07576,1.3894465449602007,0.14284184317860893,Oxalic acid,144-62-7,971,No,10.1016/j.jct.2014.05.009
O=C(O)C(=O)O,308.15,ethanol,CCO,0.08757,1.6174562223692355,0.20883253500332746,Oxalic acid,144-62-7,971,No,10.1016/j.jct.2014.05.009
O=C(O)C(=O)O,315.15,ethanol,CCO,0.10029999999999999,1.8640392473092626,0.2704550521759031,Oxalic acid,144-62-7,971,No,10.1016/j.jct.2014.05.009
O=C(O)C(=O)O,318.15,ethanol,CCO,0.1152,2.1695108881610357,0.33636183407177134,Oxalic acid,144-62-7,971,No,10.1016/j.jct.2014.05.009
O=C(O)C(=O)O,323.15,ethanol,CCO,0.1436,2.7778408337375136,0.44370735766875036,Oxalic acid,144-62-7,971,No,10.1016/j.jct.2014.05.009
O=C(O)CC(=O)O,288.15,ethanol,CCO,0.05926,1.0847276376144022,0.03532070562238352,Malonic acid,141-82-2,867,No,10.1016/j.jct.2014.05.009
O=C(O)CC(=O)O,293.15,ethanol,CCO,0.07114,1.312606203338915,0.11813445238890227,Malonic acid,141-82-2,867,No,10.1016/j.jct.2014.05.009
O=C(O)CC(=O)O,298.15,ethanol,CCO,0.08477,1.5791036449142384,0.19841063598492342,Malonic acid,141-82-2,867,No,10.1016/j.jct.2014.05.009
O=C(O)CC(=O)O,303.15,ethanol,CCO,0.09394,1.7574389014624456,0.24488023541649534,Malonic acid,141-82-2,867,No,10.1016/j.jct.2014.05.009
O=C(O)CC(=O)O,308.15,ethanol,CCO,0.1056,1.9897974458550176,0.29880886906060145,Malonic acid,141-82-2,867,No,10.1016/j.jct.2014.05.009
O=C(O)CC(=O)O,315.15,ethanol,CCO,0.11979999999999999,2.2757643687245066,0.35712729346104094,Malonic acid,141-82-2,867,No,10.1016/j.jct.2014.05.009
O=C(O)CC(=O)O,318.15,ethanol,CCO,0.1325,2.545076633890162,0.4057008637551166,Malonic acid,141-82-2,867,No,10.1016/j.jct.2014.05.009
O=C(O)CC(=O)O,323.15,ethanol,CCO,0.147,2.854945880277397,0.45559787996552265,Malonic acid,141-82-2,867,No,10.1016/j.jct.2014.05.009
O=C(O)CCC(=O)O,288.15,ethanol,CCO,0.02915,0.5170292260734048,-0.2864849068796351,Succinic acid,110-15-6,1110,No,10.1016/j.jct.2014.05.009
O=C(O)CCC(=O)O,293.15,ethanol,CCO,0.03071,0.5429963831318441,-0.2652030632124668,Succinic acid,110-15-6,1110,No,10.1016/j.jct.2014.05.009
O=C(O)CCC(=O)O,298.15,ethanol,CCO,0.04045,0.718703262435801,-0.1434503837300754,Succinic acid,110-15-6,1110,No,10.1016/j.jct.2014.05.009
O=C(O)CCC(=O)O,303.15,ethanol,CCO,0.04734,0.8423197049173989,-0.07452303946423364,Succinic acid,110-15-6,1110,No,10.1016/j.jct.2014.05.009
O=C(O)CCC(=O)O,308.15,ethanol,CCO,0.055510000000000004,0.9904911617629673,-0.004149395354811411,Succinic acid,110-15-6,1110,No,10.1016/j.jct.2014.05.009
O=C(O)CCC(=O)O,315.15,ethanol,CCO,0.062439999999999996,1.1135652341432412,0.04671566366785329,Succinic acid,110-15-6,1110,No,10.1016/j.jct.2014.05.009
O=C(O)CCC(=O)O,318.15,ethanol,CCO,0.07514,1.353784891458653,0.13154966296499898,Succinic acid,110-15-6,1110,No,10.1016/j.jct.2014.05.009
O=C(O)CCC(=O)O,323.15,ethanol,CCO,0.08388,1.5168255440003466,0.1809356337631004,Succinic acid,110-15-6,1110,No,10.1016/j.jct.2014.05.009
O=C(O)CCCC(=O)O,288.15,ethanol,CCO,0.1363,2.7174502704717356,0.43416160521193753,Glutaric acid,110-94-1,743,No,10.1016/j.jct.2014.05.009
O=C(O)CCCC(=O)O,293.15,ethanol,CCO,0.1577,3.2087489916321257,0.5063357451999758,Glutaric acid,110-94-1,743,No,10.1016/j.jct.2014.05.009
O=C(O)CCCC(=O)O,298.15,ethanol,CCO,0.1756,3.631493143804324,0.5600852285577859,Glutaric acid,110-94-1,743,No,10.1016/j.jct.2014.05.009
O=C(O)CCCC(=O)O,303.15,ethanol,CCO,0.20059999999999997,4.253568413302314,0.6287534222780422,Glutaric acid,110-94-1,743,No,10.1016/j.jct.2014.05.009
O=C(O)CCCC(=O)O,308.15,ethanol,CCO,0.2284,4.988622279914363,0.6979806220071196,Glutaric acid,110-94-1,743,No,10.1016/j.jct.2014.05.009
O=C(O)CCCC(=O)O,315.15,ethanol,CCO,0.2743,6.320050145739942,0.8007205241576619,Glutaric acid,110-94-1,743,No,10.1016/j.jct.2014.05.009
O=C(O)CCCC(=O)O,318.15,ethanol,CCO,0.3215,7.895608287290316,0.8973855942096862,Glutaric acid,110-94-1,743,No,10.1016/j.jct.2014.05.009
O=C(O)CCCC(=O)O,323.15,ethanol,CCO,0.3499,8.916478215002288,0.9501933528282955,Glutaric acid,110-94-1,743,No,10.1016/j.jct.2014.05.009
O=C(O)CCCCC(=O)O,288.15,ethanol,CCO,0.02835,0.5024257357908332,-0.2989281228025413,Adipic acid,124-04-9,196,No,10.1016/j.jct.2014.05.009
O=C(O)CCCCC(=O)O,293.15,ethanol,CCO,0.03395,0.6022974525953625,-0.22018897366507756,Adipic acid,124-04-9,196,No,10.1016/j.jct.2014.05.009
O=C(O)CCCCC(=O)O,298.15,ethanol,CCO,0.03905,0.6928176565363001,-0.15938105280570375,Adipic acid,124-04-9,196,No,10.1016/j.jct.2014.05.009
O=C(O)CCCCC(=O)O,303.15,ethanol,CCO,0.042249999999999996,0.7477582101533613,-0.1262388098516752,Adipic acid,124-04-9,196,No,10.1016/j.jct.2014.05.009
O=C(O)CCCCC(=O)O,308.15,ethanol,CCO,0.055069999999999994,0.9821824744252151,-0.007807819469662968,Adipic acid,124-04-9,196,No,10.1016/j.jct.2014.05.009
O=C(O)CCCCC(=O)O,315.15,ethanol,CCO,0.06727,1.2059167343080783,0.0813173218348547,Adipic acid,124-04-9,196,No,10.1016/j.jct.2014.05.009
O=C(O)CCCCC(=O)O,318.15,ethanol,CCO,0.08135999999999999,1.4757746874759967,0.16902005704310097,Adipic acid,124-04-9,196,No,10.1016/j.jct.2014.05.009
O=C(O)CCCCC(=O)O,323.15,ethanol,CCO,0.1036,1.914641570035378,0.28208748393106015,Adipic acid,124-04-9,196,No,10.1016/j.jct.2014.05.009
O=C(O)CCCCCC(=O)O,288.15,ethanol,CCO,0.06770999999999999,1.2506346495505773,0.09713045688915317,Pimelic acid,111-16-0,385,No,10.1016/j.jct.2014.05.009
O=C(O)CCCCCC(=O)O,293.15,ethanol,CCO,0.08513,1.594755465818666,0.20269409931336987,Pimelic acid,111-16-0,385,No,10.1016/j.jct.2014.05.009
O=C(O)CCCCCC(=O)O,298.15,ethanol,CCO,0.1045,1.9895249980611343,0.2987494003568999,Pimelic acid,111-16-0,385,No,10.1016/j.jct.2014.05.009
O=C(O)CCCCCC(=O)O,303.15,ethanol,CCO,0.1256,2.4348158934278477,0.38646612797725993,Pimelic acid,111-16-0,385,No,10.1016/j.jct.2014.05.009
O=C(O)CCCCCC(=O)O,308.15,ethanol,CCO,0.1499,2.971723222539237,0.4730083580759461,Pimelic acid,111-16-0,385,No,10.1016/j.jct.2014.05.009
O=C(O)CCCCCC(=O)O,315.15,ethanol,CCO,0.1783,3.62818894607863,0.5596898958364054,Pimelic acid,111-16-0,385,No,10.1016/j.jct.2014.05.009
O=C(O)CCCCCC(=O)O,318.15,ethanol,CCO,0.2045,4.2835870534918525,0.6318075973059616,Pimelic acid,111-16-0,385,No,10.1016/j.jct.2014.05.009
O=C(O)CCCCCC(=O)O,323.15,ethanol,CCO,0.23690000000000003,5.142960438126718,0.7112131835531835,Pimelic acid,111-16-0,385,No,10.1016/j.jct.2014.05.009
O=C(O)CCCCCCC(=O)O,288.15,ethanol,CCO,0.02084,0.3664989375126287,-0.4359272800489687,Suberic acid,505-48-6,10457,No,10.1016/j.jct.2014.05.009
O=C(O)CCCCCCC(=O)O,293.15,ethanol,CCO,0.02533,0.44539818557946315,-0.35125155648570766,Suberic acid,505-48-6,10457,No,10.1016/j.jct.2014.05.009
O=C(O)CCCCCCC(=O)O,298.15,ethanol,CCO,0.03096,0.5447007181896547,-0.26384205210781453,Suberic acid,505-48-6,10457,No,10.1016/j.jct.2014.05.009
O=C(O)CCCCCCC(=O)O,303.15,ethanol,CCO,0.03752,0.6607813143229794,-0.1799422465610995,Suberic acid,505-48-6,10457,No,10.1016/j.jct.2014.05.009
O=C(O)CCCCCCC(=O)O,308.15,ethanol,CCO,0.045439999999999994,0.8022538915322158,-0.09568816757385014,Suberic acid,505-48-6,10457,No,10.1016/j.jct.2014.05.009
O=C(O)CCCCCCC(=O)O,315.15,ethanol,CCO,0.05534,0.9795248722519726,-0.008984531854399003,Suberic acid,505-48-6,10457,No,10.1016/j.jct.2014.05.009
O=C(O)CCCCCCC(=O)O,318.15,ethanol,CCO,0.0683,1.2215157670976815,0.08689907713780182,Suberic acid,505-48-6,10457,No,10.1016/j.jct.2014.05.009
O=C(O)CCCCCCC(=O)O,323.15,ethanol,CCO,0.08474999999999999,1.5340147860462903,0.18582954570642057,Suberic acid,505-48-6,10457,No,10.1016/j.jct.2014.05.009
O=C(O)CCCCCCCC(=O)O,288.15,ethanol,CCO,0.053399999999999996,0.9714119145462626,-0.012596574128410368,Azelaic acid,123-99-9,2266,Yes,10.1016/j.jct.2014.05.009
O=C(O)CCCCCCCC(=O)O,293.15,ethanol,CCO,0.060129999999999996,1.0964637268973154,0.03999426896483438,Azelaic acid,123-99-9,2266,Yes,10.1016/j.jct.2014.05.009
O=C(O)CCCCCCCC(=O)O,298.15,ethanol,CCO,0.07067999999999999,1.2966714753389832,0.11282995717878051,Azelaic acid,123-99-9,2266,Yes,10.1016/j.jct.2014.05.009
O=C(O)CCCCCCCC(=O)O,303.15,ethanol,CCO,0.08510999999999999,1.5768789195831838,0.19779834737095303,Azelaic acid,123-99-9,2266,Yes,10.1016/j.jct.2014.05.009
O=C(O)CCCCCCCC(=O)O,308.15,ethanol,CCO,0.10189999999999999,1.912168805703254,0.28152622902239716,Azelaic acid,123-99-9,2266,Yes,10.1016/j.jct.2014.05.009
O=C(O)CCCCCCCC(=O)O,315.15,ethanol,CCO,0.12390000000000001,2.364664141676483,0.3737694656765283,Azelaic acid,123-99-9,2266,Yes,10.1016/j.jct.2014.05.009
O=C(O)CCCCCCCC(=O)O,318.15,ethanol,CCO,0.1497,2.9336215701094384,0.46740409021170354,Azelaic acid,123-99-9,2266,Yes,10.1016/j.jct.2014.05.009
O=C(O)CCCCCCCC(=O)O,323.15,ethanol,CCO,0.18460000000000001,3.750512057041609,0.5740905659586248,Azelaic acid,123-99-9,2266,Yes,10.1016/j.jct.2014.05.009
O=C(O)CCCCCCCCC(=O)O,288.15,ethanol,CCO,0.014039999999999999,0.2452090420109816,-0.6104635193776349,Sebacic acid,111-20-6,5192,No,10.1016/j.jct.2014.05.009
O=C(O)CCCCCCCCC(=O)O,293.15,ethanol,CCO,0.01678,0.29249072902683176,-0.5338878950392324,Sebacic acid,111-20-6,5192,No,10.1016/j.jct.2014.05.009
O=C(O)CCCCCCCCC(=O)O,298.15,ethanol,CCO,0.02096,0.3649972081391331,-0.4377104574460072,Sebacic acid,111-20-6,5192,No,10.1016/j.jct.2014.05.009
O=C(O)CCCCCCCCC(=O)O,303.15,ethanol,CCO,0.02618,0.4556984905481923,-0.3413224099685201,Sebacic acid,111-20-6,5192,No,10.1016/j.jct.2014.05.009
O=C(O)CCCCCCCCC(=O)O,308.15,ethanol,CCO,0.03239,0.5641405808786819,-0.24861265861925616,Sebacic acid,111-20-6,5192,No,10.1016/j.jct.2014.05.009
O=C(O)CCCCCCCCC(=O)O,315.15,ethanol,CCO,0.04095,0.7139445719712734,-0.14633550394011227,Sebacic acid,111-20-6,5192,No,10.1016/j.jct.2014.05.009
O=C(O)CCCCCCCCC(=O)O,318.15,ethanol,CCO,0.05011,0.8790337624616692,-0.05599444396012462,Sebacic acid,111-20-6,5192,No,10.1016/j.jct.2014.05.009
O=C(O)CCCCCCCCC(=O)O,323.15,ethanol,CCO,0.06476,1.1471318636488803,0.059613343239948366,Sebacic acid,111-20-6,5192,No,10.1016/j.jct.2014.05.009
CC(=O)S[C@@H]1CC2=CC(=O)CC[C@]2(C)[C@H]2CC[C@@]3(C)[C@@H](CC[C@@]34CCC(=O)O4)[C@H]12,278.75,ethanol,CCO,0.001699,0.029631690900354744,-1.5282435652684907,Spironolactone,52-01-7,5833,Yes,10.1016/j.jct.2014.07.011
CC(=O)S[C@@H]1CC2=CC(=O)CC[C@]2(C)[C@H]2CC[C@@]3(C)[C@@H](CC[C@@]34CCC(=O)O4)[C@H]12,283.55,ethanol,CCO,0.001965,0.034100783697221276,-1.4672356400260458,Spironolactone,52-01-7,5833,Yes,10.1016/j.jct.2014.07.011
CC(=O)S[C@@H]1CC2=CC(=O)CC[C@]2(C)[C@H]2CC[C@@]3(C)[C@@H](CC[C@@]34CCC(=O)O4)[C@H]12,288.45,ethanol,CCO,0.002378,0.04106356094300115,-1.3865433922562365,Spironolactone,52-01-7,5833,Yes,10.1016/j.jct.2014.07.011
CC(=O)S[C@@H]1CC2=CC(=O)CC[C@]2(C)[C@H]2CC[C@@]3(C)[C@@H](CC[C@@]34CCC(=O)O4)[C@H]12,293.45,ethanol,CCO,0.0031019999999999997,0.05330946452871997,-1.2731956797595994,Spironolactone,52-01-7,5833,Yes,10.1016/j.jct.2014.07.011
CC(=O)S[C@@H]1CC2=CC(=O)CC[C@]2(C)[C@H]2CC[C@@]3(C)[C@@H](CC[C@@]34CCC(=O)O4)[C@H]12,298.35,ethanol,CCO,0.003941,0.06741742141334267,-1.1712278624257333,Spironolactone,52-01-7,5833,Yes,10.1016/j.jct.2014.07.011
CC(=O)S[C@@H]1CC2=CC(=O)CC[C@]2(C)[C@H]2CC[C@@]3(C)[C@@H](CC[C@@]34CCC(=O)O4)[C@H]12,303.15,ethanol,CCO,0.004906,0.0835699368046171,-1.0779499262451326,Spironolactone,52-01-7,5833,Yes,10.1016/j.jct.2014.07.011
CC(=O)S[C@@H]1CC2=CC(=O)CC[C@]2(C)[C@H]2CC[C@@]3(C)[C@@H](CC[C@@]34CCC(=O)O4)[C@H]12,308.25,ethanol,CCO,0.0060609999999999995,0.10275963674867582,-0.9881774396171012,Spironolactone,52-01-7,5833,Yes,10.1016/j.jct.2014.07.011
CC(=O)S[C@@H]1CC2=CC(=O)CC[C@]2(C)[C@H]2CC[C@@]3(C)[C@@H](CC[C@@]34CCC(=O)O4)[C@H]12,313.15,ethanol,CCO,0.007705,0.13014698286912407,-0.885565895464686,Spironolactone,52-01-7,5833,Yes,10.1016/j.jct.2014.07.011
CC(=O)S[C@@H]1CC2=CC(=O)CC[C@]2(C)[C@H]2CC[C@@]3(C)[C@@H](CC[C@@]34CCC(=O)O4)[C@H]12,317.95,ethanol,CCO,0.009749,0.16409107369252998,-0.7849150432705994,Spironolactone,52-01-7,5833,Yes,10.1016/j.jct.2014.07.011
CC[C@H]1OC(=O)C[C@@H](O)[C@H](C)[C@@H](O[C@@H]2O[C@H](C)[C@@H](O[C@H]3C[C@@](C)(O)[C@@H](O)[C@H](C)O3)[C@H](N(C)C)[C@H]2O)[C@@H](CC=O)C[C@@H](C)C(=O)/C=C/C(C)=C/[C@@H]1CO[C@@H]1O[C@H](C)[C@@H](O)[C@@H](OC)[C@H]1OC.O=C(O)[C@H](O)[C@@H](O)C(=O)O,278.15,ethanol,CCO,0.0003708,0.006462627723015169,-2.189590860709983,Tylosin tartrate,74610-55-2,60196281,No,10.1016/j.jct.2014.08.026
CC[C@H]1OC(=O)C[C@@H](O)[C@H](C)[C@@H](O[C@@H]2O[C@H](C)[C@@H](O[C@H]3C[C@@](C)(O)[C@@H](O)[C@H](C)O3)[C@H](N(C)C)[C@H]2O)[C@@H](CC=O)C[C@@H](C)C(=O)/C=C/C(C)=C/[C@@H]1CO[C@@H]1O[C@H](C)[C@@H](O)[C@@H](OC)[C@H]1OC.O=C(O)[C@H](O)[C@@H](O)C(=O)O,283.15,ethanol,CCO,0.00042770000000000004,0.00740800723340718,-2.1302986022673625,Tylosin tartrate,74610-55-2,60196281,No,10.1016/j.jct.2014.08.026
CC[C@H]1OC(=O)C[C@@H](O)[C@H](C)[C@@H](O[C@@H]2O[C@H](C)[C@@H](O[C@H]3C[C@@](C)(O)[C@@H](O)[C@H](C)O3)[C@H](N(C)C)[C@H]2O)[C@@H](CC=O)C[C@@H](C)C(=O)/C=C/C(C)=C/[C@@H]1CO[C@@H]1O[C@H](C)[C@@H](O)[C@@H](OC)[C@H]1OC.O=C(O)[C@H](O)[C@@H](O)C(=O)O,288.15,ethanol,CCO,0.0005058,0.00871419382951877,-2.05977278429535,Tylosin tartrate,74610-55-2,60196281,No,10.1016/j.jct.2014.08.026
CC[C@H]1OC(=O)C[C@@H](O)[C@H](C)[C@@H](O[C@@H]2O[C@H](C)[C@@H](O[C@H]3C[C@@](C)(O)[C@@H](O)[C@H](C)O3)[C@H](N(C)C)[C@H]2O)[C@@H](CC=O)C[C@@H](C)C(=O)/C=C/C(C)=C/[C@@H]1CO[C@@H]1O[C@H](C)[C@@H](O)[C@@H](OC)[C@H]1OC.O=C(O)[C@H](O)[C@@H](O)C(=O)O,293.15,ethanol,CCO,0.0005985000000000001,0.01026348874416155,-1.988704989633861,Tylosin tartrate,74610-55-2,60196281,No,10.1016/j.jct.2014.08.026
CC[C@H]1OC(=O)C[C@@H](O)[C@H](C)[C@@H](O[C@@H]2O[C@H](C)[C@@H](O[C@H]3C[C@@](C)(O)[C@@H](O)[C@H](C)O3)[C@H](N(C)C)[C@H]2O)[C@@H](CC=O)C[C@@H](C)C(=O)/C=C/C(C)=C/[C@@H]1CO[C@@H]1O[C@H](C)[C@@H](O)[C@@H](OC)[C@H]1OC.O=C(O)[C@H](O)[C@@H](O)C(=O)O,298.15,ethanol,CCO,0.0007476000000000001,0.012755362125921285,-1.8943072072182914,Tylosin tartrate,74610-55-2,60196281,No,10.1016/j.jct.2014.08.026
CC[C@H]1OC(=O)C[C@@H](O)[C@H](C)[C@@H](O[C@@H]2O[C@H](C)[C@@H](O[C@H]3C[C@@](C)(O)[C@@H](O)[C@H](C)O3)[C@H](N(C)C)[C@H]2O)[C@@H](CC=O)C[C@@H](C)C(=O)/C=C/C(C)=C/[C@@H]1CO[C@@H]1O[C@H](C)[C@@H](O)[C@@H](OC)[C@H]1OC.O=C(O)[C@H](O)[C@@H](O)C(=O)O,303.15,ethanol,CCO,0.0008394,0.014240338153929631,-1.8464796977327302,Tylosin tartrate,74610-55-2,60196281,No,10.1016/j.jct.2014.08.026
CC[C@H]1OC(=O)C[C@@H](O)[C@H](C)[C@@H](O[C@@H]2O[C@H](C)[C@@H](O[C@H]3C[C@@](C)(O)[C@@H](O)[C@H](C)O3)[C@H](N(C)C)[C@H]2O)[C@@H](CC=O)C[C@@H](C)C(=O)/C=C/C(C)=C/[C@@H]1CO[C@@H]1O[C@H](C)[C@@H](O)[C@@H](OC)[C@H]1OC.O=C(O)[C@H](O)[C@@H](O)C(=O)O,308.15,ethanol,CCO,0.0009929,0.01674995626111865,-1.7759863226915906,Tylosin tartrate,74610-55-2,60196281,No,10.1016/j.jct.2014.08.026
CC[C@H]1OC(=O)C[C@@H](O)[C@H](C)[C@@H](O[C@@H]2O[C@H](C)[C@@H](O[C@H]3C[C@@](C)(O)[C@@H](O)[C@H](C)O3)[C@H](N(C)C)[C@H]2O)[C@@H](CC=O)C[C@@H](C)C(=O)/C=C/C(C)=C/[C@@H]1CO[C@@H]1O[C@H](C)[C@@H](O)[C@@H](OC)[C@H]1OC.O=C(O)[C@H](O)[C@@H](O)C(=O)O,313.15,ethanol,CCO,0.001253,0.021027994158282562,-1.6772021523035079,Tylosin tartrate,74610-55-2,60196281,No,10.1016/j.jct.2014.08.026
CC[C@H]1OC(=O)C[C@@H](O)[C@H](C)[C@@H](O[C@@H]2O[C@H](C)[C@@H](O[C@H]3C[C@@](C)(O)[C@@H](O)[C@H](C)O3)[C@H](N(C)C)[C@H]2O)[C@@H](CC=O)C[C@@H](C)C(=O)/C=C/C(C)=C/[C@@H]1CO[C@@H]1O[C@H](C)[C@@H](O)[C@@H](OC)[C@H]1OC.O=C(O)[C@H](O)[C@@H](O)C(=O)O,318.15,ethanol,CCO,0.0015049999999999998,0.02511568771188617,-1.6000549255917018,Tylosin tartrate,74610-55-2,60196281,No,10.1016/j.jct.2014.08.026
CC[C@H]1OC(=O)C[C@@H](O)[C@H](C)[C@@H](O[C@@H]2O[C@H](C)[C@@H](O[C@H]3C[C@@](C)(O)[C@@H](O)[C@H](C)O3)[C@H](N(C)C)[C@H]2O)[C@@H](CC=O)C[C@@H](C)C(=O)/C=C/C(C)=C/[C@@H]1CO[C@@H]1O[C@H](C)[C@@H](O)[C@@H](OC)[C@H]1OC.O=C(O)[C@H](O)[C@@H](O)C(=O)O,323.15,ethanol,CCO,0.001803,0.029923269417245997,-1.523990957188006,Tylosin tartrate,74610-55-2,60196281,No,10.1016/j.jct.2014.08.026