SMILES_Solute,Temperature_K,Solvent,SMILES_Solvent,Solubility(mole_fraction),Solubility(mol/L),LogS(mol/L),Compound_Name,CAS,PubChem_CID,FDA_Approved,Source
O=C1c2c(O)cc(O)cc2O[C@H](c2cc(O)c(O)c(O)c2)[C@H]1O,323.15,ethanol,CCO,0.0526,0.9197757181998294,-0.03631805985332922,Dihydromyricetin,27200-12-0,161557,No,10.1016/j.molliq.2015.07.007
CCCCc1oc2ccc(NS(C)(=O)=O)cc2c1C(=O)c1ccc(OCCCN(CCCC)CCCC)cc1.Cl,298.15,ethanol,CCO,0.00418,0.07156392262713122,-1.145305862506176,Dronedarone hydrochloride,141625-93-6,219025,Yes,10.1016/j.molliq.2016.01.047
CCCCc1oc2ccc(NS(C)(=O)=O)cc2c1C(=O)c1ccc(OCCCN(CCCC)CCCC)cc1.Cl,303.15,ethanol,CCO,0.00461,0.07850445257536416,-1.1051057104640245,Dronedarone hydrochloride,141625-93-6,219025,Yes,10.1016/j.molliq.2016.01.047
CCCCc1oc2ccc(NS(C)(=O)=O)cc2c1C(=O)c1ccc(OCCCN(CCCC)CCCC)cc1.Cl,308.15,ethanol,CCO,0.00535,0.09064841952089601,-1.0426397635413056,Dronedarone hydrochloride,141625-93-6,219025,Yes,10.1016/j.molliq.2016.01.047
CCCCc1oc2ccc(NS(C)(=O)=O)cc2c1C(=O)c1ccc(OCCCN(CCCC)CCCC)cc1.Cl,313.15,ethanol,CCO,0.00818,0.13823649274489605,-0.8593772933899269,Dronedarone hydrochloride,141625-93-6,219025,Yes,10.1016/j.molliq.2016.01.047
CCCCc1oc2ccc(NS(C)(=O)=O)cc2c1C(=O)c1ccc(OCCCN(CCCC)CCCC)cc1.Cl,318.15,ethanol,CCO,0.0159,0.26922312527991654,-0.5698876385412568,Dronedarone hydrochloride,141625-93-6,219025,Yes,10.1016/j.molliq.2016.01.047
CCCCc1oc2ccc(NS(C)(=O)=O)cc2c1C(=O)c1ccc(OCCCN(CCCC)CCCC)cc1.Cl,323.15,ethanol,CCO,0.0362,0.6222303993597738,-0.20604877504715435,Dronedarone hydrochloride,141625-93-6,219025,Yes,10.1016/j.molliq.2016.01.047
O=C(/C=C/c1ccc(O)c(O)c1)O[C@H](Cc1ccc(O)c(O)c1)C(=O)O,293.15,ethanol,CCO,0.267853,6.270022225597072,0.7972690802943619,Rosmarinic acid,20283-92-5,5281792,No,10.1016/j.molliq.2016.01.061
O=C(/C=C/c1ccc(O)c(O)c1)O[C@H](Cc1ccc(O)c(O)c1)C(=O)O,298.15,ethanol,CCO,0.294645,7.121804152839239,0.8525900265538062,Rosmarinic acid,20283-92-5,5281792,No,10.1016/j.molliq.2016.01.061
O=C(/C=C/c1ccc(O)c(O)c1)O[C@H](Cc1ccc(O)c(O)c1)C(=O)O,303.15,ethanol,CCO,0.328375,8.287620762190533,0.9184298697351054,Rosmarinic acid,20283-92-5,5281792,No,10.1016/j.molliq.2016.01.061
O=C(/C=C/c1ccc(O)c(O)c1)O[C@H](Cc1ccc(O)c(O)c1)C(=O)O,308.15,ethanol,CCO,0.366048,9.731020857384689,0.9881584034207308,Rosmarinic acid,20283-92-5,5281792,No,10.1016/j.molliq.2016.01.061
O=C(/C=C/c1ccc(O)c(O)c1)O[C@H](Cc1ccc(O)c(O)c1)C(=O)O,313.15,ethanol,CCO,0.40794400000000003,11.54888422785941,1.062540027770066,Rosmarinic acid,20283-92-5,5281792,No,10.1016/j.molliq.2016.01.061
O=C(/C=C/c1ccc(O)c(O)c1)O[C@H](Cc1ccc(O)c(O)c1)C(=O)O,318.15,ethanol,CCO,0.454673,13.893019114658166,1.1427966332363986,Rosmarinic acid,20283-92-5,5281792,No,10.1016/j.molliq.2016.01.061
CCOC(=O)Cc1c(C(=O)OCC)sc(N(CC(=O)OCC)CC(=O)OCC)c1C#N,283.15,ethanol,CCO,0.0005117,0.008863679871978268,-2.052385937672501,Tetraethyl ranelate,58194-26-6,12253549,No,10.1016/j.molliq.2016.02.002
CCOC(=O)Cc1c(C(=O)OCC)sc(N(CC(=O)OCC)CC(=O)OCC)c1C#N,285.65,ethanol,CCO,0.0006349000000000001,0.010978140332354818,-1.9594712219805472,Tetraethyl ranelate,58194-26-6,12253549,No,10.1016/j.molliq.2016.02.002
CCOC(=O)Cc1c(C(=O)OCC)sc(N(CC(=O)OCC)CC(=O)OCC)c1C#N,288.15,ethanol,CCO,0.0007903000000000001,0.013619589235904816,-1.8658359904606798,Tetraethyl ranelate,58194-26-6,12253549,No,10.1016/j.molliq.2016.02.002
CCOC(=O)Cc1c(C(=O)OCC)sc(N(CC(=O)OCC)CC(=O)OCC)c1C#N,290.65,ethanol,CCO,0.0009711,0.016704881432851548,-1.777156602530552,Tetraethyl ranelate,58194-26-6,12253549,No,10.1016/j.molliq.2016.02.002
CCOC(=O)Cc1c(C(=O)OCC)sc(N(CC(=O)OCC)CC(=O)OCC)c1C#N,293.15,ethanol,CCO,0.001205,0.020676714916174982,-1.6845184601190633,Tetraethyl ranelate,58194-26-6,12253549,No,10.1016/j.molliq.2016.02.002
CCOC(=O)Cc1c(C(=O)OCC)sc(N(CC(=O)OCC)CC(=O)OCC)c1C#N,295.65,ethanol,CCO,0.001484,0.025399958442232296,-1.5951669939439974,Tetraethyl ranelate,58194-26-6,12253549,No,10.1016/j.molliq.2016.02.002
CCOC(=O)Cc1c(C(=O)OCC)sc(N(CC(=O)OCC)CC(=O)OCC)c1C#N,298.15,ethanol,CCO,0.001785,0.030486869299386345,-1.5158871711023045,Tetraethyl ranelate,58194-26-6,12253549,No,10.1016/j.molliq.2016.02.002
CCOC(=O)Cc1c(C(=O)OCC)sc(N(CC(=O)OCC)CC(=O)OCC)c1C#N,300.65,ethanol,CCO,0.00216,0.03679003825861784,-1.43426976053805,Tetraethyl ranelate,58194-26-6,12253549,No,10.1016/j.molliq.2016.02.002
CCOC(=O)Cc1c(C(=O)OCC)sc(N(CC(=O)OCC)CC(=O)OCC)c1C#N,303.15,ethanol,CCO,0.0026390000000000003,0.04485115648880458,-1.348226354175501,Tetraethyl ranelate,58194-26-6,12253549,No,10.1016/j.molliq.2016.02.002
CCOC(=O)Cc1c(C(=O)OCC)sc(N(CC(=O)OCC)CC(=O)OCC)c1C#N,305.65,ethanol,CCO,0.0031969999999999998,0.05420513594714361,-1.265959562025641,Tetraethyl ranelate,58194-26-6,12253549,No,10.1016/j.molliq.2016.02.002
CCOC(=O)Cc1c(C(=O)OCC)sc(N(CC(=O)OCC)CC(=O)OCC)c1C#N,308.15,ethanol,CCO,0.003798,0.06425165111853552,-1.1921157074915265,Tetraethyl ranelate,58194-26-6,12253549,No,10.1016/j.molliq.2016.02.002
CCOC(=O)Cc1c(C(=O)OCC)sc(N(CC(=O)OCC)CC(=O)OCC)c1C#N,310.65,ethanol,CCO,0.004569,0.07713885692498534,-1.1127268009748954,Tetraethyl ranelate,58194-26-6,12253549,No,10.1016/j.molliq.2016.02.002
CCOC(=O)Cc1c(C(=O)OCC)sc(N(CC(=O)OCC)CC(=O)OCC)c1C#N,313.15,ethanol,CCO,0.005428,0.09147572812210866,-1.038694124960727,Tetraethyl ranelate,58194-26-6,12253549,No,10.1016/j.molliq.2016.02.002
CCOC(=O)Cc1c(C(=O)OCC)sc(N(CC(=O)OCC)CC(=O)OCC)c1C#N,315.65,ethanol,CCO,0.0064470000000000005,0.10843564505880932,-0.9648279326712912,Tetraethyl ranelate,58194-26-6,12253549,No,10.1016/j.molliq.2016.02.002
CCOC(=O)Cc1c(C(=O)OCC)sc(N(CC(=O)OCC)CC(=O)OCC)c1C#N,318.15,ethanol,CCO,0.007684,0.12903033689397186,-0.8893081687961367,Tetraethyl ranelate,58194-26-6,12253549,No,10.1016/j.molliq.2016.02.002
CCOC(=O)Cc1c(C(=O)OCC)sc(N(CC(=O)OCC)CC(=O)OCC)c1C#N,320.65,ethanol,CCO,0.009042,0.15161526738589745,-0.8192570638253682,Tetraethyl ranelate,58194-26-6,12253549,No,10.1016/j.molliq.2016.02.002
CCOC(=O)Cc1c(C(=O)OCC)sc(N(CC(=O)OCC)CC(=O)OCC)c1C#N,323.15,ethanol,CCO,0.010740000000000001,0.17985536978244923,-0.745076591306281,Tetraethyl ranelate,58194-26-6,12253549,No,10.1016/j.molliq.2016.02.002
CN(Cc1ccccc1)CN1C(=O)C(=NNC(=O)c2ccccc2OCc2ccccc2)c2ccccc21,298.15,ethanol,CCO,0.00047400000000000003,0.008085054395707156,-2.0923170538434195,N-(1-(n-(methyl) benzylaminomethyl)-2-oxoindolin-3-ylidene)-2-(benzyloxy) benzohydrazide,1884472-26-7,137175079,No,10.1016/j.molliq.2016.04.068
CN(Cc1ccccc1)CN1C(=O)C(=NNC(=O)c2ccccc2OCc2ccccc2)c2ccccc21,303.15,ethanol,CCO,0.000583,0.009888000046665422,-2.00489154020565,N-(1-(n-(methyl) benzylaminomethyl)-2-oxoindolin-3-ylidene)-2-(benzyloxy) benzohydrazide,1884472-26-7,137175079,No,10.1016/j.molliq.2016.04.068
CN(Cc1ccccc1)CN1C(=O)C(=NNC(=O)c2ccccc2OCc2ccccc2)c2ccccc21,308.15,ethanol,CCO,0.000715,0.012058503529213735,-1.9187065851751604,N-(1-(n-(methyl) benzylaminomethyl)-2-oxoindolin-3-ylidene)-2-(benzyloxy) benzohydrazide,1884472-26-7,137175079,No,10.1016/j.molliq.2016.04.068
CN(Cc1ccccc1)CN1C(=O)C(=NNC(=O)c2ccccc2OCc2ccccc2)c2ccccc21,313.15,ethanol,CCO,0.0008320000000000001,0.01395683917710122,-1.855212925794032,N-(1-(n-(methyl) benzylaminomethyl)-2-oxoindolin-3-ylidene)-2-(benzyloxy) benzohydrazide,1884472-26-7,137175079,No,10.1016/j.molliq.2016.04.068
CN(Cc1ccccc1)CN1C(=O)C(=NNC(=O)c2ccccc2OCc2ccccc2)c2ccccc21,318.15,ethanol,CCO,0.0009689999999999999,0.016162155517548005,-1.7915007186264682,N-(1-(n-(methyl) benzylaminomethyl)-2-oxoindolin-3-ylidene)-2-(benzyloxy) benzohydrazide,1884472-26-7,137175079,No,10.1016/j.molliq.2016.04.068
CN1CCN(C(=O)O[C@H]2c3nccnc3C(=O)N2c2ccc(Cl)cn2)CC1,288.15,ethanol,CCO,0.00023,0.0039614702994269805,-2.4021435957877104,Eszopiclone,138729-47-2,969472,Yes,10.1016/j.molliq.2016.04.121
CN1CCN(C(=O)O[C@H]2c3nccnc3C(=O)N2c2ccc(Cl)cn2)CC1,293.15,ethanol,CCO,0.000282,0.004834398530149552,-2.315657550802467,Eszopiclone,138729-47-2,969472,Yes,10.1016/j.molliq.2016.04.121
CN1CCN(C(=O)O[C@H]2c3nccnc3C(=O)N2c2ccc(Cl)cn2)CC1,298.15,ethanol,CCO,0.00036,0.00613984736777918,-2.2118424249753117,Eszopiclone,138729-47-2,969472,Yes,10.1016/j.molliq.2016.04.121
CN1CCN(C(=O)O[C@H]2c3nccnc3C(=O)N2c2ccc(Cl)cn2)CC1,303.15,ethanol,CCO,0.000431,0.00730888500538427,-2.1361488710507563,Eszopiclone,138729-47-2,969472,Yes,10.1016/j.molliq.2016.04.121
CN1CCN(C(=O)O[C@H]2c3nccnc3C(=O)N2c2ccc(Cl)cn2)CC1,308.15,ethanol,CCO,0.000526,0.00886933348448154,-2.0521090154431176,Eszopiclone,138729-47-2,969472,Yes,10.1016/j.molliq.2016.04.121
CN1CCN(C(=O)O[C@H]2c3nccnc3C(=O)N2c2ccc(Cl)cn2)CC1,313.15,ethanol,CCO,0.000672,0.0112710267771105,-1.9480365184418205,Eszopiclone,138729-47-2,969472,Yes,10.1016/j.molliq.2016.04.121
CN1CCN(C(=O)O[C@H]2c3nccnc3C(=O)N2c2ccc(Cl)cn2)CC1,318.15,ethanol,CCO,0.000851,0.014192332292854111,-1.8479462290185873,Eszopiclone,138729-47-2,969472,Yes,10.1016/j.molliq.2016.04.121
CN1CCN(C(=O)O[C@H]2c3nccnc3C(=O)N2c2ccc(Cl)cn2)CC1,323.15,ethanol,CCO,0.000996,0.01651663942002638,-1.782078312330777,Eszopiclone,138729-47-2,969472,Yes,10.1016/j.molliq.2016.04.121
CN1CCN(C(=O)O[C@H]2c3nccnc3C(=O)N2c2ccc(Cl)cn2)CC1,328.15,ethanol,CCO,0.001198,0.019750653403292028,-1.704418532202067,Eszopiclone,138729-47-2,969472,Yes,10.1016/j.molliq.2016.04.121
CN1C(C(=O)Nc2ccccn2)=C(O)c2ccccc2S1(=O)=O,293.2,ethanol,CCO,0.000103,0.0017652873206858858,-2.7531845981327963,Piroxicam,36322-90-4,54676228,Yes,10.1016/j.molliq.2016.05.056
CN1C(C(=O)Nc2ccccn2)=C(O)c2ccccc2S1(=O)=O,298.2,ethanol,CCO,0.000177,0.0030169868824608246,-2.5204265780872803,Piroxicam,36322-90-4,54676228,Yes,10.1016/j.molliq.2016.05.056
CN1C(C(=O)Nc2ccccn2)=C(O)c2ccccc2S1(=O)=O,303.2,ethanol,CCO,0.00033400000000000004,0.005662278285988917,-2.24700879002224,Piroxicam,36322-90-4,54676228,Yes,10.1016/j.molliq.2016.05.056
CN1C(C(=O)Nc2ccccn2)=C(O)c2ccccc2S1(=O)=O,308.2,ethanol,CCO,0.000553,0.00932454849600693,-2.0303721879846908,Piroxicam,36322-90-4,54676228,Yes,10.1016/j.molliq.2016.05.056
CN1C(C(=O)Nc2ccccn2)=C(O)c2ccccc2S1(=O)=O,313.2,ethanol,CCO,0.00078,0.013081121040314638,-1.883355035770143,Piroxicam,36322-90-4,54676228,Yes,10.1016/j.molliq.2016.05.056
O=[N+]([O-])c1cccc2c([N+](=O)[O-])cccc12,273.15,ethanol,CCO,1.9880000000000003e-05,0.0003482499456080914,-3.4581089427348894,"1,5-dinitro-naphthalen",605-71-0,11803,No,10.1016/j.molliq.2016.06.062
O=[N+]([O-])c1cccc2c([N+](=O)[O-])cccc12,275.65,ethanol,CCO,2.2460000000000002e-05,0.0003923812999599975,-3.40629169833007,"1,5-dinitro-naphthalen",605-71-0,11803,No,10.1016/j.molliq.2016.06.062
O=[N+]([O-])c1cccc2c([N+](=O)[O-])cccc12,278.15,ethanol,CCO,2.6189999999999998e-05,0.0004563049923196769,-3.3407447796932015,"1,5-dinitro-naphthalen",605-71-0,11803,No,10.1016/j.molliq.2016.06.062
O=[N+]([O-])c1cccc2c([N+](=O)[O-])cccc12,280.65,ethanol,CCO,3.0959999999999995e-05,0.0005379464927821011,-3.2692609195847697,"1,5-dinitro-naphthalen",605-71-0,11803,No,10.1016/j.molliq.2016.06.062
O=[N+]([O-])c1cccc2c([N+](=O)[O-])cccc12,283.15,ethanol,CCO,3.664e-05,0.0006343774514085263,-3.197652262170415,"1,5-dinitro-naphthalen",605-71-0,11803,No,10.1016/j.molliq.2016.06.062
O=[N+]([O-])c1cccc2c([N+](=O)[O-])cccc12,285.65,ethanol,CCO,4.156e-05,0.0007181930834606084,-3.143758781651265,"1,5-dinitro-naphthalen",605-71-0,11803,No,10.1016/j.molliq.2016.06.062
O=[N+]([O-])c1cccc2c([N+](=O)[O-])cccc12,288.15,ethanol,CCO,4.815e-05,0.0008291743752443337,-3.0813541277816796,"1,5-dinitro-naphthalen",605-71-0,11803,No,10.1016/j.molliq.2016.06.062
O=[N+]([O-])c1cccc2c([N+](=O)[O-])cccc12,290.65,ethanol,CCO,5.431e-05,0.0009333851456582752,-3.0299391149678723,"1,5-dinitro-naphthalen",605-71-0,11803,No,10.1016/j.molliq.2016.06.062
O=[N+]([O-])c1cccc2c([N+](=O)[O-])cccc12,293.15,ethanol,CCO,6.148e-05,0.0010537350174086356,-2.9772685873641294,"1,5-dinitro-naphthalen",605-71-0,11803,No,10.1016/j.molliq.2016.06.062
O=[N+]([O-])c1cccc2c([N+](=O)[O-])cccc12,295.65,ethanol,CCO,6.936e-05,0.0011854775709067866,-2.926106658407483,"1,5-dinitro-naphthalen",605-71-0,11803,No,10.1016/j.molliq.2016.06.062
O=[N+]([O-])c1cccc2c([N+](=O)[O-])cccc12,298.15,ethanol,CCO,7.824e-05,0.0013340174864674276,-2.874838477595978,"1,5-dinitro-naphthalen",605-71-0,11803,No,10.1016/j.molliq.2016.06.062
O=[N+]([O-])c1cccc2c([N+](=O)[O-])cccc12,300.65,ethanol,CCO,8.741e-05,0.001485718329110603,-2.828063518777377,"1,5-dinitro-naphthalen",605-71-0,11803,No,10.1016/j.molliq.2016.06.062
O=[N+]([O-])c1cccc2c([N+](=O)[O-])cccc12,303.15,ethanol,CCO,9.753e-05,0.0016533592160480207,-2.781632779460001,"1,5-dinitro-naphthalen",605-71-0,11803,No,10.1016/j.molliq.2016.06.062
O=[N+]([O-])c1cccc2c([N+](=O)[O-])cccc12,305.65,ethanol,CCO,0.0001087,0.0018373161501915466,-2.7358161074557366,"1,5-dinitro-naphthalen",605-71-0,11803,No,10.1016/j.molliq.2016.06.062
O=[N+]([O-])c1cccc2c([N+](=O)[O-])cccc12,308.15,ethanol,CCO,0.0001217,0.002051257474106578,-2.6879798235099264,"1,5-dinitro-naphthalen",605-71-0,11803,No,10.1016/j.molliq.2016.06.062
O=[N+]([O-])c1cccc2c([N+](=O)[O-])cccc12,310.65,ethanol,CCO,0.0001392,0.002339714657570584,-2.6308371042132763,"1,5-dinitro-naphthalen",605-71-0,11803,No,10.1016/j.molliq.2016.06.062
O=[N+]([O-])c1cccc2c([N+](=O)[O-])cccc12,313.15,ethanol,CCO,0.0001573,0.002636934285881311,-2.5789006929728666,"1,5-dinitro-naphthalen",605-71-0,11803,No,10.1016/j.molliq.2016.06.062
COc1cc(/C=C/C(=O)O)cc(OC)c1O,298.15,ethanol,CCO,0.012,0.20707277404611266,-0.683876998445126,Sinapic acid,530-59-6,637775,No,10.1016/j.molliq.2016.07.007
COc1cc(/C=C/C(=O)O)cc(OC)c1O,303.15,ethanol,CCO,0.013000000000000001,0.22326098535558628,-0.6511871628450709,Sinapic acid,530-59-6,637775,No,10.1016/j.molliq.2016.07.007
COc1cc(/C=C/C(=O)O)cc(OC)c1O,308.15,ethanol,CCO,0.0141,0.2410254972150453,-0.61793701255345,Sinapic acid,530-59-6,637775,No,10.1016/j.molliq.2016.07.007
COc1cc(/C=C/C(=O)O)cc(OC)c1O,313.15,ethanol,CCO,0.0152,0.25870082430951574,-0.587202187470145,Sinapic acid,530-59-6,637775,No,10.1016/j.molliq.2016.07.007
COc1cc(/C=C/C(=O)O)cc(OC)c1O,318.15,ethanol,CCO,0.016399999999999998,0.2778304209438975,-0.5562202030737805,Sinapic acid,530-59-6,637775,No,10.1016/j.molliq.2016.07.007
O=C(O)/C=C\C=C/C(=O)O,298.15,ethanol,CCO,0.011699999999999999,0.201834668864333,-0.6950042335238716,"cis,cis-muconic acid",1119-72-8,5280518,No,10.1016/j.molliq.2016.07.129
O=C(O)/C=C\C=C/C(=O)O,303.15,ethanol,CCO,0.0139,0.23893538932616407,-0.6217195210294627,"cis,cis-muconic acid",1119-72-8,5280518,No,10.1016/j.molliq.2016.07.129
O=C(O)/C=C\C=C/C(=O)O,308.15,ethanol,CCO,0.016,0.27403221784502463,-0.5621983743702607,"cis,cis-muconic acid",1119-72-8,5280518,No,10.1016/j.molliq.2016.07.129
O=C(O)/C=C\C=C/C(=O)O,313.15,ethanol,CCO,0.0184,0.3141850657862703,-0.502814462201069,"cis,cis-muconic acid",1119-72-8,5280518,No,10.1016/j.molliq.2016.07.129
O=C(O)/C=C\C=C/C(=O)O,318.15,ethanol,CCO,0.0236,0.40275292314187106,-0.3949612988298432,"cis,cis-muconic acid",1119-72-8,5280518,No,10.1016/j.molliq.2016.07.129
O=C(O)/C=C\C=C/C(=O)O,323.15,ethanol,CCO,0.029300000000000003,0.5000485440493884,-0.30098783288514286,"cis,cis-muconic acid",1119-72-8,5280518,No,10.1016/j.molliq.2016.07.129
O=C(O)/C=C\C=C/C(=O)O,328.15,ethanol,CCO,0.037000000000000005,0.6326732755172177,-0.19882051000193682,"cis,cis-muconic acid",1119-72-8,5280518,No,10.1016/j.molliq.2016.07.129
O=C(O)/C=C\C=C/C(=O)O,333.15,ethanol,CCO,0.0478,0.8220393627160602,-0.08510738610827019,"cis,cis-muconic acid",1119-72-8,5280518,No,10.1016/j.molliq.2016.07.129
O=C(O)/C=C\C=C/C(=O)O,338.15,ethanol,CCO,0.059500000000000004,1.0302158134294792,0.012928211854455604,"cis,cis-muconic acid",1119-72-8,5280518,No,10.1016/j.molliq.2016.07.129
O=C(O)/C=C\C=C/C(=O)O,343.15,ethanol,CCO,0.07150000000000001,1.246687071880375,0.09575745587589125,"cis,cis-muconic acid",1119-72-8,5280518,No,10.1016/j.molliq.2016.07.129
O=C(O)/C=C\C=C/C(=O)O,348.15,ethanol,CCO,0.08470000000000001,1.4893667091010303,0.17300164209812205,"cis,cis-muconic acid",1119-72-8,5280518,No,10.1016/j.molliq.2016.07.129
COc1cc(-c2cc(-c3ccc(Br)cc3)[nH]c(=O)c2C#N)ccc1O,298.15,ethanol,CCO,0.0007099,0.012111677308704062,-1.9167957085933487,"6-(4-bromophenyl)-4-(4-hydroxy-3-methoxyphenyl)-2-oxo-1,2-dihydropyridine-3-carbonitrile",,19656493,No,10.1016/j.molliq.2016.08.074
COc1cc(-c2cc(-c3ccc(Br)cc3)[nH]c(=O)c2C#N)ccc1O,303.15,ethanol,CCO,0.0007502,0.0127259328508233,-1.8953103726756113,"6-(4-bromophenyl)-4-(4-hydroxy-3-methoxyphenyl)-2-oxo-1,2-dihydropyridine-3-carbonitrile",,19656493,No,10.1016/j.molliq.2016.08.074
COc1cc(-c2cc(-c3ccc(Br)cc3)[nH]c(=O)c2C#N)ccc1O,308.15,ethanol,CCO,0.0007886,0.013300750101574168,-1.8761238661164836,"6-(4-bromophenyl)-4-(4-hydroxy-3-methoxyphenyl)-2-oxo-1,2-dihydropyridine-3-carbonitrile",,19656493,No,10.1016/j.molliq.2016.08.074
COc1cc(-c2cc(-c3ccc(Br)cc3)[nH]c(=O)c2C#N)ccc1O,313.15,ethanol,CCO,0.0008323,0.013961875883278132,-1.855056227054953,"6-(4-bromophenyl)-4-(4-hydroxy-3-methoxyphenyl)-2-oxo-1,2-dihydropyridine-3-carbonitrile",,19656493,No,10.1016/j.molliq.2016.08.074
COc1cc(-c2cc(-c3ccc(Br)cc3)[nH]c(=O)c2C#N)ccc1O,318.15,ethanol,CCO,0.0008761,0.014611298103854755,-1.8353111985559545,"6-(4-bromophenyl)-4-(4-hydroxy-3-methoxyphenyl)-2-oxo-1,2-dihydropyridine-3-carbonitrile",,19656493,No,10.1016/j.molliq.2016.08.074
COc1cc(-c2cc(-c3ccc(Br)cc3)[nH]c(=O)c2C#N)ccc1O,323.15,ethanol,CCO,0.0009193,0.015243555174567058,-1.8169137329548166,"6-(4-bromophenyl)-4-(4-hydroxy-3-methoxyphenyl)-2-oxo-1,2-dihydropyridine-3-carbonitrile",,19656493,No,10.1016/j.molliq.2016.08.074
COc1cc(-c2cc(-c3ccc(Br)cc3)[nH]c(=O)c2C#N)ccc1O,328.15,ethanol,CCO,0.0009725000000000001,0.016029361372967534,-1.7950837800613964,"6-(4-bromophenyl)-4-(4-hydroxy-3-methoxyphenyl)-2-oxo-1,2-dihydropyridine-3-carbonitrile",,19656493,No,10.1016/j.molliq.2016.08.074
COc1cc(-c2cc(-c3ccc(Cl)cc3)[nH]c(=O)c2C#N)ccc1O,298.15,ethanol,CCO,0.0007301,0.012456563398862013,-1.9046017572572569,"6-(4-chlorophenyl)-4-(4-hydroxy-3-methoxyphenyl)-2-oxo-1,2-dihydropyridine-3-carbonitrile",,19656494,No,10.1016/j.molliq.2016.08.074
COc1cc(-c2cc(-c3ccc(Cl)cc3)[nH]c(=O)c2C#N)ccc1O,303.15,ethanol,CCO,0.0007701,0.013063764414178943,-1.8839316600644556,"6-(4-chlorophenyl)-4-(4-hydroxy-3-methoxyphenyl)-2-oxo-1,2-dihydropyridine-3-carbonitrile",,19656494,No,10.1016/j.molliq.2016.08.074
COc1cc(-c2cc(-c3ccc(Cl)cc3)[nH]c(=O)c2C#N)ccc1O,308.15,ethanol,CCO,0.0008101,0.013663669168483038,-1.8644326618806006,"6-(4-chlorophenyl)-4-(4-hydroxy-3-methoxyphenyl)-2-oxo-1,2-dihydropyridine-3-carbonitrile",,19656494,No,10.1016/j.molliq.2016.08.074
COc1cc(-c2cc(-c3ccc(Cl)cc3)[nH]c(=O)c2C#N)ccc1O,313.15,ethanol,CCO,0.0008605,0.014435339768864503,-1.8405729895452014,"6-(4-chlorophenyl)-4-(4-hydroxy-3-methoxyphenyl)-2-oxo-1,2-dihydropyridine-3-carbonitrile",,19656494,No,10.1016/j.molliq.2016.08.074
COc1cc(-c2cc(-c3ccc(Cl)cc3)[nH]c(=O)c2C#N)ccc1O,318.15,ethanol,CCO,0.0009049,0.015092049749865841,-1.8212517718478909,"6-(4-chlorophenyl)-4-(4-hydroxy-3-methoxyphenyl)-2-oxo-1,2-dihydropyridine-3-carbonitrile",,19656494,No,10.1016/j.molliq.2016.08.074
COc1cc(-c2cc(-c3ccc(Cl)cc3)[nH]c(=O)c2C#N)ccc1O,323.15,ethanol,CCO,0.0009481,0.015721561280921347,-1.8035043271248894,"6-(4-chlorophenyl)-4-(4-hydroxy-3-methoxyphenyl)-2-oxo-1,2-dihydropyridine-3-carbonitrile",,19656494,No,10.1016/j.molliq.2016.08.074
COc1cc(-c2cc(-c3ccc(Cl)cc3)[nH]c(=O)c2C#N)ccc1O,328.15,ethanol,CCO,0.0010013,0.01650453701985584,-1.7823966538566618,"6-(4-chlorophenyl)-4-(4-hydroxy-3-methoxyphenyl)-2-oxo-1,2-dihydropyridine-3-carbonitrile",,19656494,No,10.1016/j.molliq.2016.08.074
COc1cc(-c2cc(-c3ccc(F)cc3)[nH]c(=O)c2C#N)ccc1O,298.15,ethanol,CCO,0.000762,0.013001238641950182,-1.8860152700209813,"6-(4-fluorophenyl)-4-(4-hydroxy-3-methoxyphenyl)-2-oxo-1,2-dihydropyridine-3-carbonitrile",,19656498,No,10.1016/j.molliq.2016.08.074
COc1cc(-c2cc(-c3ccc(F)cc3)[nH]c(=O)c2C#N)ccc1O,303.15,ethanol,CCO,0.000809,0.01372418758850407,-1.8625133544386996,"6-(4-fluorophenyl)-4-(4-hydroxy-3-methoxyphenyl)-2-oxo-1,2-dihydropyridine-3-carbonitrile",,19656498,No,10.1016/j.molliq.2016.08.074