SMILES_Solute,Temperature_K,Solvent,SMILES_Solvent,Solubility(mole_fraction),Solubility(mol/L),LogS(mol/L),Compound_Name,CAS,PubChem_CID,FDA_Approved,Source
CN(C)c1ccc(O)c2c1C[C@H]1C[C@H]3[C@H](N(C)C)C(O)=C(C(N)=O)C(=O)[C@@]3(O)C(O)=C1C2=O.Cl,278.15,ethanol,CCO,0.000812,0.014158497458005605,-1.8489828328270985,Minocycline hydrochloride,13614-98-7,54685925,Yes,10.1016/j.jct.2021.106399
CN(C)c1ccc(O)c2c1C[C@H]1C[C@H]3[C@H](N(C)C)C(O)=C(C(N)=O)C(=O)[C@@]3(O)C(O)=C1C2=O.Cl,283.15,ethanol,CCO,0.000931,0.0161335729623017,-1.7922694425319152,Minocycline hydrochloride,13614-98-7,54685925,Yes,10.1016/j.jct.2021.106399
CN(C)c1ccc(O)c2c1C[C@H]1C[C@H]3[C@H](N(C)C)C(O)=C(C(N)=O)C(=O)[C@@]3(O)C(O)=C1C2=O.Cl,288.15,ethanol,CCO,0.00105,0.018099818371555425,-1.7423257831765067,Minocycline hydrochloride,13614-98-7,54685925,Yes,10.1016/j.jct.2021.106399
CN(C)c1ccc(O)c2c1C[C@H]1C[C@H]3[C@H](N(C)C)C(O)=C(C(N)=O)C(=O)[C@@]3(O)C(O)=C1C2=O.Cl,293.15,ethanol,CCO,0.0012,0.020590816340306444,-1.6863264350690745,Minocycline hydrochloride,13614-98-7,54685925,Yes,10.1016/j.jct.2021.106399
CN(C)c1ccc(O)c2c1C[C@H]1C[C@H]3[C@H](N(C)C)C(O)=C(C(N)=O)C(=O)[C@@]3(O)C(O)=C1C2=O.Cl,298.15,ethanol,CCO,0.00135,0.023047252626270887,-1.6373808377521637,Minocycline hydrochloride,13614-98-7,54685925,Yes,10.1016/j.jct.2021.106399
CN(C)c1ccc(O)c2c1C[C@H]1C[C@H]3[C@H](N(C)C)C(O)=C(C(N)=O)C(=O)[C@@]3(O)C(O)=C1C2=O.Cl,303.15,ethanol,CCO,0.00152,0.02580422709209266,-1.5883091447190534,Minocycline hydrochloride,13614-98-7,54685925,Yes,10.1016/j.jct.2021.106399
CN(C)c1ccc(O)c2c1C[C@H]1C[C@H]3[C@H](N(C)C)C(O)=C(C(N)=O)C(=O)[C@@]3(O)C(O)=C1C2=O.Cl,308.15,ethanol,CCO,0.00171,0.02886796240538522,-1.5395838689536039,Minocycline hydrochloride,13614-98-7,54685925,Yes,10.1016/j.jct.2021.106399
CN(C)c1ccc(O)c2c1C[C@H]1C[C@H]3[C@H](N(C)C)C(O)=C(C(N)=O)C(=O)[C@@]3(O)C(O)=C1C2=O.Cl,313.15,ethanol,CCO,0.0019,0.031906694191465176,-1.4961181901273135,Minocycline hydrochloride,13614-98-7,54685925,Yes,10.1016/j.jct.2021.106399
CN1CCN(C2=Nc3cc(Cl)ccc3Nc3ccccc32)CC1,278.15,ethanol,CCO,0.005328,0.09332385516410176,-1.0300073290090825,Clozapine,5786-21-0,135398737,Yes,10.1016/j.jct.2021.106451
CN1CCN(C2=Nc3cc(Cl)ccc3Nc3ccccc32)CC1,283.15,ethanol,CCO,0.005896,0.1026838192485925,-0.9884979864386377,Clozapine,5786-21-0,135398737,Yes,10.1016/j.jct.2021.106451
CN1CCN(C2=Nc3cc(Cl)ccc3Nc3ccccc32)CC1,288.15,ethanol,CCO,0.006599,0.11438845771569318,-0.9416177955017225,Clozapine,5786-21-0,135398737,Yes,10.1016/j.jct.2021.106451
CN1CCN(C2=Nc3cc(Cl)ccc3Nc3ccccc32)CC1,293.15,ethanol,CCO,0.007349,0.12688273034679373,-0.8965974844890505,Clozapine,5786-21-0,135398737,Yes,10.1016/j.jct.2021.106451
CN1CCN(C2=Nc3cc(Cl)ccc3Nc3ccccc32)CC1,298.15,ethanol,CCO,0.008114,0.13946715539444016,-0.8555280569813579,Clozapine,5786-21-0,135398737,Yes,10.1016/j.jct.2021.106451
CN1CCN(C2=Nc3cc(Cl)ccc3Nc3ccccc32)CC1,303.15,ethanol,CCO,0.008901,0.152232857918457,-0.8174915993884214,Clozapine,5786-21-0,135398737,Yes,10.1016/j.jct.2021.106451
CN1CCN(C2=Nc3cc(Cl)ccc3Nc3ccccc32)CC1,308.15,ethanol,CCO,0.009877,0.16811739275100313,-0.7743873538714096,Clozapine,5786-21-0,135398737,Yes,10.1016/j.jct.2021.106451
CN1CCN(C2=Nc3cc(Cl)ccc3Nc3ccccc32)CC1,313.15,ethanol,CCO,0.0108,0.18299613292134795,-0.7375580876939675,Clozapine,5786-21-0,135398737,Yes,10.1016/j.jct.2021.106451
CN1CCN(C2=Nc3cc(Cl)ccc3Nc3ccccc32)CC1,318.15,ethanol,CCO,0.01193,0.20119037460453096,-0.6963928007340681,Clozapine,5786-21-0,135398737,Yes,10.1016/j.jct.2021.106451
CN1CCN(C2=Nc3cc(Cl)ccc3Nc3ccccc32)CC1,323.15,ethanol,CCO,0.01306,0.2192209231926005,-0.6591179976628623,Clozapine,5786-21-0,135398737,Yes,10.1016/j.jct.2021.106451
Cn1c(=O)cc(N2CCC[C@@H](N)C2)n(Cc2ccccc2C#N)c1=O.O=C(O)c1ccccc1,278.15,ethanol,CCO,0.000355,0.006187153667525795,-2.208509097471233,Alogliptin benzoate,850649-62-6,16088021,Yes,10.1016/j.jct.2021.106474
Cn1c(=O)cc(N2CCC[C@@H](N)C2)n(Cc2ccccc2C#N)c1=O.O=C(O)c1ccccc1,283.15,ethanol,CCO,0.000447,0.007742443702437662,-2.1111219438413156,Alogliptin benzoate,850649-62-6,16088021,Yes,10.1016/j.jct.2021.106474
Cn1c(=O)cc(N2CCC[C@@H](N)C2)n(Cc2ccccc2C#N)c1=O.O=C(O)c1ccccc1,288.15,ethanol,CCO,0.000554,0.009545069600458632,-2.020220900483,Alogliptin benzoate,850649-62-6,16088021,Yes,10.1016/j.jct.2021.106474
Cn1c(=O)cc(N2CCC[C@@H](N)C2)n(Cc2ccccc2C#N)c1=O.O=C(O)c1ccccc1,293.15,ethanol,CCO,0.000682,0.011696381282031086,-1.9319484828979139,Alogliptin benzoate,850649-62-6,16088021,Yes,10.1016/j.jct.2021.106474
Cn1c(=O)cc(N2CCC[C@@H](N)C2)n(Cc2ccccc2C#N)c1=O.O=C(O)c1ccccc1,298.15,ethanol,CCO,0.000822,0.014025800409829692,-1.8530723454975777,Alogliptin benzoate,850649-62-6,16088021,Yes,10.1016/j.jct.2021.106474
Cn1c(=O)cc(N2CCC[C@@H](N)C2)n(Cc2ccccc2C#N)c1=O.O=C(O)c1ccccc1,303.15,ethanol,CCO,0.001021,0.017324312968881914,-1.7613439792119545,Alogliptin benzoate,850649-62-6,16088021,Yes,10.1016/j.jct.2021.106474
Cn1c(=O)cc(N2CCC[C@@H](N)C2)n(Cc2ccccc2C#N)c1=O.O=C(O)c1ccccc1,308.15,ethanol,CCO,0.001221,0.020602646117218792,-1.6860769970917882,Alogliptin benzoate,850649-62-6,16088021,Yes,10.1016/j.jct.2021.106474
Cn1c(=O)cc(N2CCC[C@@H](N)C2)n(Cc2ccccc2C#N)c1=O.O=C(O)c1ccccc1,313.15,ethanol,CCO,0.001467,0.02462464374719795,-1.6086300438656915,Alogliptin benzoate,850649-62-6,16088021,Yes,10.1016/j.jct.2021.106474
Cn1c(=O)cc(N2CCC[C@@H](N)C2)n(Cc2ccccc2C#N)c1=O.O=C(O)c1ccccc1,318.15,ethanol,CCO,0.001757,0.02932850711291286,-1.532710043024394,Alogliptin benzoate,850649-62-6,16088021,Yes,10.1016/j.jct.2021.106474
CC(=O)Nc1ccc(C(=O)O)cc1,283.15,ethanol,CCO,0.005863,0.10210570690700509,-0.9909499835844313,p-acetamidobenzoic acid,556-08-1,19266,No,10.1016/j.jct.2021.106478
CC(=O)Nc1ccc(C(=O)O)cc1,288.15,ethanol,CCO,0.006736,0.11677934965683034,-0.9326339476601415,p-acetamidobenzoic acid,556-08-1,19266,No,10.1016/j.jct.2021.106478
CC(=O)Nc1ccc(C(=O)O)cc1,293.15,ethanol,CCO,0.007498,0.12947469542505896,-0.8878151019387365,p-acetamidobenzoic acid,556-08-1,19266,No,10.1016/j.jct.2021.106478
CC(=O)Nc1ccc(C(=O)O)cc1,298.15,ethanol,CCO,0.008336,0.14331506947875947,-0.8437081414423014,p-acetamidobenzoic acid,556-08-1,19266,No,10.1016/j.jct.2021.106478
CC(=O)Nc1ccc(C(=O)O)cc1,303.15,ethanol,CCO,0.009207,0.15751497588844238,-0.8026781489441085,p-acetamidobenzoic acid,556-08-1,19266,No,10.1016/j.jct.2021.106478
CC(=O)Nc1ccc(C(=O)O)cc1,308.15,ethanol,CCO,0.010135,0.17255379921842723,-0.7630754741503323,p-acetamidobenzoic acid,556-08-1,19266,No,10.1016/j.jct.2021.106478
CC(=O)Nc1ccc(C(=O)O)cc1,313.15,ethanol,CCO,0.011408,0.19341701890870835,-0.7135053146741593,p-acetamidobenzoic acid,556-08-1,19266,No,10.1016/j.jct.2021.106478
CC(=O)Nc1ccc(C(=O)O)cc1,318.15,ethanol,CCO,0.01264,0.21331726843094756,-0.6709739861787438,p-acetamidobenzoic acid,556-08-1,19266,No,10.1016/j.jct.2021.106478
CC(=O)Nc1ccc(C(=O)O)cc1,323.15,ethanol,CCO,0.014041,0.2359221731967371,-0.627231239934878,p-acetamidobenzoic acid,556-08-1,19266,No,10.1016/j.jct.2021.106478
Clc1ncnc2[nH]ccc12,278.15,ethanol,CCO,0.00849,0.14918286354103455,-0.8262810608914601,6-chloro-7-azapurine,3680-69-1,5356682,No,10.1016/j.jct.2021.106493
Clc1ncnc2[nH]ccc12,283.15,ethanol,CCO,0.0098,0.17134818703158106,-0.7661204863105402,6-chloro-7-azapurine,3680-69-1,5356682,No,10.1016/j.jct.2021.106493
Clc1ncnc2[nH]ccc12,288.15,ethanol,CCO,0.0113,0.19680792310595235,-0.7059574216977134,6-chloro-7-azapurine,3680-69-1,5356682,No,10.1016/j.jct.2021.106493
Clc1ncnc2[nH]ccc12,293.15,ethanol,CCO,0.0131,0.2274935035845787,-0.6430310007547952,6-chloro-7-azapurine,3680-69-1,5356682,No,10.1016/j.jct.2021.106493
Clc1ncnc2[nH]ccc12,298.15,ethanol,CCO,0.0151,0.2613867145090149,-0.5827164900609557,6-chloro-7-azapurine,3680-69-1,5356682,No,10.1016/j.jct.2021.106493
Clc1ncnc2[nH]ccc12,303.15,ethanol,CCO,0.0174,0.30016436066791147,-0.5226408739984743,6-chloro-7-azapurine,3680-69-1,5356682,No,10.1016/j.jct.2021.106493
Clc1ncnc2[nH]ccc12,308.15,ethanol,CCO,0.01989,0.34200834599755003,-0.46596329576709317,6-chloro-7-azapurine,3680-69-1,5356682,No,10.1016/j.jct.2021.106493
Clc1ncnc2[nH]ccc12,313.15,ethanol,CCO,0.02251,0.3859805639933892,-0.4134345636260152,6-chloro-7-azapurine,3680-69-1,5356682,No,10.1016/j.jct.2021.106493
Clc1ncnc2[nH]ccc12,318.15,ethanol,CCO,0.0256,0.4377812520171694,-0.3587428410317494,6-chloro-7-azapurine,3680-69-1,5356682,No,10.1016/j.jct.2021.106493
Clc1ncnc2[nH]ccc12,323.15,ethanol,CCO,0.0291,0.4965329393094817,-0.30405193571676475,6-chloro-7-azapurine,3680-69-1,5356682,No,10.1016/j.jct.2021.106493
CC(=O)Nc1ccc(OC(=O)c2ccccc2OC(C)=O)cc1,278.15,ethanol,CCO,0.0002614,0.0045554099937282965,-2.3414725297775187,Benorilate,5003-48-5,21102,Yes,10.1016/j.jct.2021.106517
CC(=O)Nc1ccc(OC(=O)c2ccccc2OC(C)=O)cc1,283.15,ethanol,CCO,0.00035,0.006061727847556343,-2.2174035659818827,Benorilate,5003-48-5,21102,Yes,10.1016/j.jct.2021.106517
CC(=O)Nc1ccc(OC(=O)c2ccccc2OC(C)=O)cc1,288.15,ethanol,CCO,0.0004539,0.007819626734205339,-2.1068139772654586,Benorilate,5003-48-5,21102,Yes,10.1016/j.jct.2021.106517
CC(=O)Nc1ccc(OC(=O)c2ccccc2OC(C)=O)cc1,293.15,ethanol,CCO,0.0005882,0.010086753319604768,-1.9962486000941724,Benorilate,5003-48-5,21102,Yes,10.1016/j.jct.2021.106517
CC(=O)Nc1ccc(OC(=O)c2ccccc2OC(C)=O)cc1,298.15,ethanol,CCO,0.0007547,0.012876592022476865,-1.890199064124961,Benorilate,5003-48-5,21102,Yes,10.1016/j.jct.2021.106517
CC(=O)Nc1ccc(OC(=O)c2ccccc2OC(C)=O)cc1,303.15,ethanol,CCO,0.0009475,0.016075983258545208,-1.793822454752037,Benorilate,5003-48-5,21102,Yes,10.1016/j.jct.2021.106517
CC(=O)Nc1ccc(OC(=O)c2ccccc2OC(C)=O)cc1,308.15,ethanol,CCO,0.001205,0.02033234305733425,-1.691812571276518,Benorilate,5003-48-5,21102,Yes,10.1016/j.jct.2021.106517
CC(=O)Nc1ccc(OC(=O)c2ccccc2OC(C)=O)cc1,313.15,ethanol,CCO,0.001511,0.025364332872733653,-1.5957765559170747,Benorilate,5003-48-5,21102,Yes,10.1016/j.jct.2021.106517
CC(=O)Nc1ccc(OC(=O)c2ccccc2OC(C)=O)cc1,318.15,ethanol,CCO,0.001909,0.03187060133741393,-1.496609742141051,Benorilate,5003-48-5,21102,Yes,10.1016/j.jct.2021.106517
CCOc1ccccc1C(N)=O,293.15,ethanol,CCO,0.01206,0.20921248150192898,-0.6794124092611975,Ethenzamide,938-73-8,3282,No,10.1016/j.jct.2021.106553
CCOc1ccccc1C(N)=O,298.15,ethanol,CCO,0.01623,0.2812701503141984,-0.5508763547231101,Ethenzamide,938-73-8,3282,No,10.1016/j.jct.2021.106553
CCOc1ccccc1C(N)=O,303.15,ethanol,CCO,0.01985,0.34328482391136195,-0.4643453956340715,Ethenzamide,938-73-8,3282,No,10.1016/j.jct.2021.106553
CCOc1ccccc1C(N)=O,308.15,ethanol,CCO,0.025249999999999998,0.4365609441252553,-0.35995512000018703,Ethenzamide,938-73-8,3282,No,10.1016/j.jct.2021.106553
CCOc1ccccc1C(N)=O,313.15,ethanol,CCO,0.031259999999999996,0.5408589313684696,-0.26691599425990453,Ethenzamide,938-73-8,3282,No,10.1016/j.jct.2021.106553
CCOc1ccccc1C(N)=O,318.15,ethanol,CCO,0.039209999999999995,0.6800218024347325,-0.16747716299184404,Ethenzamide,938-73-8,3282,No,10.1016/j.jct.2021.106553
CCOc1ccccc1C(N)=O,323.15,ethanol,CCO,0.04716,0.8199424898623249,-0.0862166076301075,Ethenzamide,938-73-8,3282,No,10.1016/j.jct.2021.106553
O=C(/C=C/C=C/c1ccc2c(c1)OCO2)N1CCCCC1,278.15,ethanol,CCO,0.00413,0.07225297761878217,-1.1411442504847757,Piperine,94-62-2,638024,No,10.1016/j.jct.2021.106555
O=C(/C=C/C=C/c1ccc2c(c1)OCO2)N1CCCCC1,283.15,ethanol,CCO,0.00503,0.08752545130960958,-1.0578656411939753,Piperine,94-62-2,638024,No,10.1016/j.jct.2021.106555
O=C(/C=C/C=C/c1ccc2c(c1)OCO2)N1CCCCC1,288.15,ethanol,CCO,0.00607,0.1051626595558376,-0.9781384391516472,Piperine,94-62-2,638024,No,10.1016/j.jct.2021.106555
O=C(/C=C/C=C/c1ccc2c(c1)OCO2)N1CCCCC1,293.15,ethanol,CCO,0.00714,0.12324833188581831,-0.9092189500035669,Piperine,94-62-2,638024,No,10.1016/j.jct.2021.106555
O=C(/C=C/C=C/c1ccc2c(c1)OCO2)N1CCCCC1,298.15,ethanol,CCO,0.00827,0.14217091507307225,-0.8471892412661242,Piperine,94-62-2,638024,No,10.1016/j.jct.2021.106555
O=C(/C=C/C=C/c1ccc2c(c1)OCO2)N1CCCCC1,303.15,ethanol,CCO,0.00966,0.16534057487591744,-0.7816205566985418,Piperine,94-62-2,638024,No,10.1016/j.jct.2021.106555
O=C(/C=C/C=C/c1ccc2c(c1)OCO2)N1CCCCC1,308.15,ethanol,CCO,0.01112,0.18951253250126954,-0.7223620647662242,Piperine,94-62-2,638024,No,10.1016/j.jct.2021.106555
O=C(/C=C/C=C/c1ccc2c(c1)OCO2)N1CCCCC1,313.15,ethanol,CCO,0.01257,0.21336895215455243,-0.6708687755813884,Piperine,94-62-2,638024,No,10.1016/j.jct.2021.106555
O=C(/C=C/C=C/c1ccc2c(c1)OCO2)N1CCCCC1,318.15,ethanol,CCO,0.01425,0.24088100116142538,-0.6181974524555305,Piperine,94-62-2,638024,No,10.1016/j.jct.2021.106555
Nc1nc2ccc(OC(F)(F)F)cc2s1,278.15,ethanol,CCO,0.1794,3.8088973945498616,0.5807992736373172,Riluzole,1744-22-5,5070,Yes,10.1016/j.jct.2021.106569
Nc1nc2ccc(OC(F)(F)F)cc2s1,283.15,ethanol,CCO,0.18831,4.016608915027357,0.6038595478596271,Riluzole,1744-22-5,5070,Yes,10.1016/j.jct.2021.106569
Nc1nc2ccc(OC(F)(F)F)cc2s1,288.15,ethanol,CCO,0.19778,4.245389646522366,0.6279175564336014,Riluzole,1744-22-5,5070,Yes,10.1016/j.jct.2021.106569
Nc1nc2ccc(OC(F)(F)F)cc2s1,293.15,ethanol,CCO,0.21169,4.602291893614373,0.6629741596967944,Riluzole,1744-22-5,5070,Yes,10.1016/j.jct.2021.106569
Nc1nc2ccc(OC(F)(F)F)cc2s1,298.15,ethanol,CCO,0.22246,4.877843841102134,0.6882278927318719,Riluzole,1744-22-5,5070,Yes,10.1016/j.jct.2021.106569
Nc1nc2ccc(OC(F)(F)F)cc2s1,303.15,ethanol,CCO,0.23629,5.244492908875575,0.7197035025345894,Riluzole,1744-22-5,5070,Yes,10.1016/j.jct.2021.106569
Nc1nc2ccc(OC(F)(F)F)cc2s1,308.15,ethanol,CCO,0.25448,5.7526916863771795,0.759871098778992,Riluzole,1744-22-5,5070,Yes,10.1016/j.jct.2021.106569
Nc1nc2ccc(OC(F)(F)F)cc2s1,313.15,ethanol,CCO,0.27259,6.281059637465842,0.7980329169670998,Riluzole,1744-22-5,5070,Yes,10.1016/j.jct.2021.106569
Nc1nc2ccc(OC(F)(F)F)cc2s1,318.15,ethanol,CCO,0.29401,6.939337679755637,0.8413180214989703,Riluzole,1744-22-5,5070,Yes,10.1016/j.jct.2021.106569
Nc1nc2ccc(OC(F)(F)F)cc2s1,323.15,ethanol,CCO,0.30786,7.368666358571397,0.8673888928083502,Riluzole,1744-22-5,5070,Yes,10.1016/j.jct.2021.106569
O=C(O)COc1ccc(Cl)cc1Cl,278.15,ethanol,CCO,0.0654,1.2191589162479335,0.08606031919611067,"2,4-dichlorophenoxyacetic acid",94-75-7,1486,No,10.1016/j.jct.2021.106589
O=C(O)COc1ccc(Cl)cc1Cl,283.15,ethanol,CCO,0.0797,1.499357717365247,0.175905259361984,"2,4-dichlorophenoxyacetic acid",94-75-7,1486,No,10.1016/j.jct.2021.106589
O=C(O)COc1ccc(Cl)cc1Cl,288.15,ethanol,CCO,0.0975,1.8603132276173238,0.2695860740958497,"2,4-dichlorophenoxyacetic acid",94-75-7,1486,No,10.1016/j.jct.2021.106589
O=C(O)COc1ccc(Cl)cc1Cl,293.15,ethanol,CCO,0.1173,2.277486115903747,0.3574557380908017,"2,4-dichlorophenoxyacetic acid",94-75-7,1486,No,10.1016/j.jct.2021.106589
O=C(O)COc1ccc(Cl)cc1Cl,298.15,ethanol,CCO,0.1414,2.8077421739963198,0.4483572254123379,"2,4-dichlorophenoxyacetic acid",94-75-7,1486,No,10.1016/j.jct.2021.106589
O=C(O)COc1ccc(Cl)cc1Cl,303.15,ethanol,CCO,0.1671,3.4007149084690678,0.5315702253263118,"2,4-dichlorophenoxyacetic acid",94-75-7,1486,No,10.1016/j.jct.2021.106589
O=C(O)COc1ccc(Cl)cc1Cl,308.15,ethanol,CCO,0.1918,3.999507339810142,0.6020064981331716,"2,4-dichlorophenoxyacetic acid",94-75-7,1486,No,10.1016/j.jct.2021.106589
O=C(O)COc1ccc(Cl)cc1Cl,313.15,ethanol,CCO,0.2232,4.8160084236695155,0.6826872378739351,"2,4-dichlorophenoxyacetic acid",94-75-7,1486,No,10.1016/j.jct.2021.106589
O=C(O)COc1ccc(Cl)cc1Cl,318.15,ethanol,CCO,0.255,5.703459692282411,0.7561383766308636,"2,4-dichlorophenoxyacetic acid",94-75-7,1486,No,10.1016/j.jct.2021.106589
O=C(O)COc1ccc(Cl)cc1Cl,323.15,ethanol,CCO,0.2918,6.82588459684894,0.8341589415202102,"2,4-dichlorophenoxyacetic acid",94-75-7,1486,No,10.1016/j.jct.2021.106589
S=C(Nc1ccccc1)Nc1ccccc1,283.15,ethanol,CCO,0.001599,0.027728081151053983,-1.5570801835899328,"N,N'-diphenyl thiourea (DPTU)",102-08-9,700999,No,10.1016/j.jct.2021.106605
S=C(Nc1ccccc1)Nc1ccccc1,288.15,ethanol,CCO,0.00176,0.03036032166096799,-1.5176936314971299,"N,N'-diphenyl thiourea (DPTU)",102-08-9,700999,No,10.1016/j.jct.2021.106605
S=C(Nc1ccccc1)Nc1ccccc1,293.15,ethanol,CCO,0.002215,0.03804587812333172,-1.4196923876518437,"N,N'-diphenyl thiourea (DPTU)",102-08-9,700999,No,10.1016/j.jct.2021.106605
S=C(Nc1ccccc1)Nc1ccccc1,298.15,ethanol,CCO,0.002626,0.044888529561073275,-1.3478646207950788,"N,N'-diphenyl thiourea (DPTU)",102-08-9,700999,No,10.1016/j.jct.2021.106605
S=C(Nc1ccccc1)Nc1ccccc1,303.15,ethanol,CCO,0.003143,0.05344390159594403,-1.2721018443248489,"N,N'-diphenyl thiourea (DPTU)",102-08-9,700999,No,10.1016/j.jct.2021.106605
S=C(Nc1ccccc1)Nc1ccccc1,308.15,ethanol,CCO,0.003915,0.06623874686506794,-1.178887892327253,"N,N'-diphenyl thiourea (DPTU)",102-08-9,700999,No,10.1016/j.jct.2021.106605
S=C(Nc1ccccc1)Nc1ccccc1,313.15,ethanol,CCO,0.004887,0.08231371517136578,-1.0845277962946176,"N,N'-diphenyl thiourea (DPTU)",102-08-9,700999,No,10.1016/j.jct.2021.106605
S=C(Nc1ccccc1)Nc1ccccc1,318.15,ethanol,CCO,0.006089,0.10208288748384661,-0.9910470541346134,"N,N'-diphenyl thiourea (DPTU)",102-08-9,700999,No,10.1016/j.jct.2021.106605
S=C(Nc1ccccc1)Nc1ccccc1,323.15,ethanol,CCO,0.007565,0.12628054184604923,-0.8986635632998997,"N,N'-diphenyl thiourea (DPTU)",102-08-9,700999,No,10.1016/j.jct.2021.106605
CC(C)C(=O)Nc1ccc([N+](=O)[O-])c(C(F)(F)F)c1,278.15,ethanol,CCO,0.03655,0.6609468662207727,-0.17983345221576494,Flutamide,13311-84-7,3397,Yes,10.1016/j.jct.2021.106611
CC(C)C(=O)Nc1ccc([N+](=O)[O-])c(C(F)(F)F)c1,283.15,ethanol,CCO,0.043519999999999996,0.7877517077112449,-0.10361064667663304,Flutamide,13311-84-7,3397,Yes,10.1016/j.jct.2021.106611
CC(C)C(=O)Nc1ccc([N+](=O)[O-])c(C(F)(F)F)c1,288.15,ethanol,CCO,0.05221,0.9485718667696341,-0.022929760021370236,Flutamide,13311-84-7,3397,Yes,10.1016/j.jct.2021.106611
CC(C)C(=O)Nc1ccc([N+](=O)[O-])c(C(F)(F)F)c1,293.15,ethanol,CCO,0.061689999999999995,1.1267803844868827,0.0518392779807071,Flutamide,13311-84-7,3397,Yes,10.1016/j.jct.2021.106611
CC(C)C(=O)Nc1ccc([N+](=O)[O-])c(C(F)(F)F)c1,298.15,ethanol,CCO,0.07285,1.3396096074159336,0.12697825355337963,Flutamide,13311-84-7,3397,Yes,10.1016/j.jct.2021.106611
CC(C)C(=O)Nc1ccc([N+](=O)[O-])c(C(F)(F)F)c1,303.15,ethanol,CCO,0.08578,1.5904571083372256,0.20152196148887963,Flutamide,13311-84-7,3397,Yes,10.1016/j.jct.2021.106611
CC(C)C(=O)Nc1ccc([N+](=O)[O-])c(C(F)(F)F)c1,308.15,ethanol,CCO,0.1002,1.8767156435056627,0.273398474106835,Flutamide,13311-84-7,3397,Yes,10.1016/j.jct.2021.106611
CC(C)C(=O)Nc1ccc([N+](=O)[O-])c(C(F)(F)F)c1,313.15,ethanol,CCO,0.1159,2.1972744710129906,0.3418843099023509,Flutamide,13311-84-7,3397,Yes,10.1016/j.jct.2021.106611
CC(C)C(=O)Nc1ccc([N+](=O)[O-])c(C(F)(F)F)c1,318.15,ethanol,CCO,0.1357,2.616193146355902,0.4176698036048628,Flutamide,13311-84-7,3397,Yes,10.1016/j.jct.2021.106611
CC(C)C(=O)Nc1ccc([N+](=O)[O-])c(C(F)(F)F)c1,323.15,ethanol,CCO,0.1563,3.0690255591665445,0.4870005052968504,Flutamide,13311-84-7,3397,Yes,10.1016/j.jct.2021.106611
CC(=O)NC1CCSC1=O,278.15,ethanol,CCO,0.03548,0.6408859064641984,-0.19321927875471992,Citiolone,1195-16-0,14520,No,10.1016/j.jct.2021.106624
CC(=O)NC1CCSC1=O,283.15,ethanol,CCO,0.04391,0.7951352760328116,-0.09955897871865547,Citiolone,1195-16-0,14520,No,10.1016/j.jct.2021.106624
CC(=O)NC1CCSC1=O,288.15,ethanol,CCO,0.054979999999999994,1.0018262446986215,0.0007924046528509537,Citiolone,1195-16-0,14520,No,10.1016/j.jct.2021.106624
CC(=O)NC1CCSC1=O,293.15,ethanol,CCO,0.06993,1.2886018325982782,0.11011874464710679,Citiolone,1195-16-0,14520,No,10.1016/j.jct.2021.106624
CC(=O)NC1CCSC1=O,298.15,ethanol,CCO,0.08658,1.616016404245353,0.20844576500111509,Citiolone,1195-16-0,14520,No,10.1016/j.jct.2021.106624
CC(=O)NC1CCSC1=O,303.15,ethanol,CCO,0.1068,2.026791973880337,0.30680917581086636,Citiolone,1195-16-0,14520,No,10.1016/j.jct.2021.106624
CC(=O)NC1CCSC1=O,308.15,ethanol,CCO,0.1321,2.5651328984971276,0.409109870652038,Citiolone,1195-16-0,14520,No,10.1016/j.jct.2021.106624
CC(=O)NC1CCSC1=O,313.15,ethanol,CCO,0.1637,3.2808686759652343,0.515988847135494,Citiolone,1195-16-0,14520,No,10.1016/j.jct.2021.106624
CC(=O)NC1CCSC1=O,318.15,ethanol,CCO,0.20070000000000002,4.184003396990035,0.6215920284628097,Citiolone,1195-16-0,14520,No,10.1016/j.jct.2021.106624
CC(=O)NC1CCSC1=O,323.15,ethanol,CCO,0.2435,5.332361812463924,0.7269196095763172,Citiolone,1195-16-0,14520,No,10.1016/j.jct.2021.106624