SMILES_Solute,Temperature_K,Solvent,SMILES_Solvent,Solubility(mole_fraction),Solubility(mol/L),LogS(mol/L),Compound_Name,CAS,PubChem_CID,FDA_Approved,Source
O=C(/C=C/c1cn(-c2ccccc2)nc1-c1cccc([N+](=O)[O-])c1)c1nc2ccccc2[nH]1,328.15,ethanol,CCO,0.0001194,0.001966347352148869,-2.7063397622939322,(E)1(1Hbenzo[d]imidazole2yl)3(3(3nitrophenyl)1phenyl1Hpyrazol4yl) prop2en1-one,,,No,10.1016/j.molliq.2018.12.081
O=C(/C=C/c1cn(-c2ccccc2)nc1-c1ccccc1)c1nc2ccccc2[nH]1,298.15,ethanol,CCO,8.48e-05,0.001445877109065601,-2.8398686179147408,"(E)1(1Hbenzo[d]imidazole2yl)3(1, 3diphenyl1Hpyrazol4yl) prop2en1-one",,,No,10.1016/j.molliq.2018.12.081
O=C(/C=C/c1cn(-c2ccccc2)nc1-c1ccccc1)c1nc2ccccc2[nH]1,303.15,ethanol,CCO,9.4e-05,0.0015935119208375266,-2.79764468328244,"(E)1(1Hbenzo[d]imidazole2yl)3(1, 3diphenyl1Hpyrazol4yl) prop2en1-one",,,No,10.1016/j.molliq.2018.12.081
O=C(/C=C/c1cn(-c2ccccc2)nc1-c1ccccc1)c1nc2ccccc2[nH]1,308.15,ethanol,CCO,0.0001064,0.0017933480329214058,-2.7463354192444505,"(E)1(1Hbenzo[d]imidazole2yl)3(1, 3diphenyl1Hpyrazol4yl) prop2en1-one",,,No,10.1016/j.molliq.2018.12.081
O=C(/C=C/c1cn(-c2ccccc2)nc1-c1ccccc1)c1nc2ccccc2[nH]1,313.15,ethanol,CCO,0.000123,0.002061867710316617,-2.6857392025454954,"(E)1(1Hbenzo[d]imidazole2yl)3(1, 3diphenyl1Hpyrazol4yl) prop2en1-one",,,No,10.1016/j.molliq.2018.12.081
O=C(/C=C/c1cn(-c2ccccc2)nc1-c1ccccc1)c1nc2ccccc2[nH]1,318.15,ethanol,CCO,0.0001348,0.0022464818181300774,-2.648497092013191,"(E)1(1Hbenzo[d]imidazole2yl)3(1, 3diphenyl1Hpyrazol4yl) prop2en1-one",,,No,10.1016/j.molliq.2018.12.081
O=C(/C=C/c1cn(-c2ccccc2)nc1-c1ccccc1)c1nc2ccccc2[nH]1,323.15,ethanol,CCO,0.000146,0.0024190555633230378,-2.616354156207174,"(E)1(1Hbenzo[d]imidazole2yl)3(1, 3diphenyl1Hpyrazol4yl) prop2en1-one",,,No,10.1016/j.molliq.2018.12.081
O=C(/C=C/c1cn(-c2ccccc2)nc1-c1ccccc1)c1nc2ccccc2[nH]1,328.15,ethanol,CCO,0.0001601,0.0026367255107846875,-2.5789350789120307,"(E)1(1Hbenzo[d]imidazole2yl)3(1, 3diphenyl1Hpyrazol4yl) prop2en1-one",,,No,10.1016/j.molliq.2018.12.081
O=C(/C=C/c1cn(-c2ccccc2)nc1-c1ccccc1Cl)c1nc2ccccc2[nH]1,298.15,ethanol,CCO,0.0001051,0.0017920373739296234,-2.746652937128054,(E)1(1Hbenzo[d]imidazole2-yl)3(3(2chlorophenyl)1phenyl1Hpyrazol4yl) prop2en1-one,,,No,10.1016/j.molliq.2018.12.081
O=C(/C=C/c1cn(-c2ccccc2)nc1-c1ccccc1Cl)c1nc2ccccc2[nH]1,303.15,ethanol,CCO,0.00012529999999999998,0.002124183979176379,-2.6728078709800225,(E)1(1Hbenzo[d]imidazole2-yl)3(3(2chlorophenyl)1phenyl1Hpyrazol4yl) prop2en1-one,,,No,10.1016/j.molliq.2018.12.081
O=C(/C=C/c1cn(-c2ccccc2)nc1-c1ccccc1Cl)c1nc2ccccc2[nH]1,308.15,ethanol,CCO,0.0001451,0.0024457224751038916,-2.611592825455521,(E)1(1Hbenzo[d]imidazole2-yl)3(3(2chlorophenyl)1phenyl1Hpyrazol4yl) prop2en1-one,,,No,10.1016/j.molliq.2018.12.081
O=C(/C=C/c1cn(-c2ccccc2)nc1-c1ccccc1Cl)c1nc2ccccc2[nH]1,313.15,ethanol,CCO,0.00015670000000000001,0.002626874473198881,-2.5805606797451692,(E)1(1Hbenzo[d]imidazole2-yl)3(3(2chlorophenyl)1phenyl1Hpyrazol4yl) prop2en1-one,,,No,10.1016/j.molliq.2018.12.081
O=C(/C=C/c1cn(-c2ccccc2)nc1-c1ccccc1Cl)c1nc2ccccc2[nH]1,318.15,ethanol,CCO,0.0001786,0.0029765521466291554,-2.5262865045804244,(E)1(1Hbenzo[d]imidazole2-yl)3(3(2chlorophenyl)1phenyl1Hpyrazol4yl) prop2en1-one,,,No,10.1016/j.molliq.2018.12.081
O=C(/C=C/c1cn(-c2ccccc2)nc1-c1ccccc1Cl)c1nc2ccccc2[nH]1,323.15,ethanol,CCO,0.000195,0.0032310887221371487,-2.490651116570544,(E)1(1Hbenzo[d]imidazole2-yl)3(3(2chlorophenyl)1phenyl1Hpyrazol4yl) prop2en1-one,,,No,10.1016/j.molliq.2018.12.081
O=C(/C=C/c1cn(-c2ccccc2)nc1-c1ccccc1Cl)c1nc2ccccc2[nH]1,328.15,ethanol,CCO,0.0002172,0.0035773234792805943,-2.4464417870205315,(E)1(1Hbenzo[d]imidazole2-yl)3(3(2chlorophenyl)1phenyl1Hpyrazol4yl) prop2en1-one,,,No,10.1016/j.molliq.2018.12.081
Nc1ccc(S(=O)(=O)c2ccc(N)cc2)cc1,283.15,ethanol,CCO,0.00364,0.0632501354181429,-1.1989385403293895,Dapsone,80-08-0,2955,Yes,10.1016/j.molliq.2019.02.023
Nc1ccc(S(=O)(=O)c2ccc(N)cc2)cc1,288.15,ethanol,CCO,0.003927,0.06788884220621602,-1.1682015978322988,Dapsone,80-08-0,2955,Yes,10.1016/j.molliq.2019.02.023
Nc1ccc(S(=O)(=O)c2ccc(N)cc2)cc1,293.15,ethanol,CCO,0.004381,0.07541381822700108,-1.1225490701793175,Dapsone,80-08-0,2955,Yes,10.1016/j.molliq.2019.02.023
Nc1ccc(S(=O)(=O)c2ccc(N)cc2)cc1,298.15,ethanol,CCO,0.004774,0.08178231529124941,-1.0873405985508175,Dapsone,80-08-0,2955,Yes,10.1016/j.molliq.2019.02.023
Nc1ccc(S(=O)(=O)c2ccc(N)cc2)cc1,303.15,ethanol,CCO,0.00558,0.09511543229733277,-1.0217490138949852,Dapsone,80-08-0,2955,Yes,10.1016/j.molliq.2019.02.023
Nc1ccc(S(=O)(=O)c2ccc(N)cc2)cc1,308.15,ethanol,CCO,0.005883,0.09973281772800406,-1.0011619107658234,Dapsone,80-08-0,2955,Yes,10.1016/j.molliq.2019.02.023
Nc1ccc(S(=O)(=O)c2ccc(N)cc2)cc1,313.15,ethanol,CCO,0.006697,0.11300582138123318,-0.9468991836968739,Dapsone,80-08-0,2955,Yes,10.1016/j.molliq.2019.02.023
Nc1ccc(S(=O)(=O)c2ccc(N)cc2)cc1,318.15,ethanol,CCO,0.007956000000000001,0.13363441247304791,-0.8740816913910844,Dapsone,80-08-0,2955,Yes,10.1016/j.molliq.2019.02.023
Nc1ccc(S(=O)(=O)c2ccc(N)cc2)cc1,323.15,ethanol,CCO,0.009269999999999999,0.1550079585277719,-0.8096460034041288,Dapsone,80-08-0,2955,Yes,10.1016/j.molliq.2019.02.023
C=CC(=O)Nc1cc(Nc2nccc(-c3cn(C)c4ccccc34)n2)c(OC)cc1N(C)CCN(C)C,298.2,ethanol,CCO,0.000472,0.008047672836999408,-2.0943296873544877,Osimertinib,1421373-65-0,71496458,Yes,10.1016/j.molliq.2019.03.128
C=CC(=O)Nc1cc(Nc2nccc(-c3cn(C)c4ccccc34)n2)c(OC)cc1N(C)CCN(C)C,303.2,ethanol,CCO,0.0007030000000000001,0.011922309889193728,-1.9236395940131883,Osimertinib,1421373-65-0,71496458,Yes,10.1016/j.molliq.2019.03.128
C=CC(=O)Nc1cc(Nc2nccc(-c3cn(C)c4ccccc34)n2)c(OC)cc1N(C)CCN(C)C,308.2,ethanol,CCO,0.000989,0.016683550136801503,-1.7777115291917518,Osimertinib,1421373-65-0,71496458,Yes,10.1016/j.molliq.2019.03.128
C=CC(=O)Nc1cc(Nc2nccc(-c3cn(C)c4ccccc34)n2)c(OC)cc1N(C)CCN(C)C,313.2,ethanol,CCO,0.00131,0.021981234228805352,-1.6579479259384255,Osimertinib,1421373-65-0,71496458,Yes,10.1016/j.molliq.2019.03.128
C=CC(=O)Nc1cc(Nc2nccc(-c3cn(C)c4ccccc34)n2)c(OC)cc1N(C)CCN(C)C,318.2,ethanol,CCO,0.00176,0.029378140173144104,-1.531975701333611,Osimertinib,1421373-65-0,71496458,Yes,10.1016/j.molliq.2019.03.128
NC(=O)c1ccccc1,283.15,ethanol,CCO,0.041159999999999995,0.7431997978332365,-0.1288944171520919,Benzamide,55-21-0,2331,No,10.1016/j.molliq.2019.110885
NC(=O)c1ccccc1,288.15,ethanol,CCO,0.04795,0.8672763888557483,-0.06184247688794689,Benzamide,55-21-0,2331,No,10.1016/j.molliq.2019.110885
NC(=O)c1ccccc1,293.15,ethanol,CCO,0.05547,1.006498801253818,0.0028132619776171457,Benzamide,55-21-0,2331,No,10.1016/j.molliq.2019.110885
NC(=O)c1ccccc1,298.15,ethanol,CCO,0.06481999999999999,1.1817143693464531,0.0725125164714558,Benzamide,55-21-0,2331,No,10.1016/j.molliq.2019.110885
NC(=O)c1ccccc1,303.15,ethanol,CCO,0.07583,1.3908356914653914,0.14327582696921726,Benzamide,55-21-0,2331,No,10.1016/j.molliq.2019.110885
NC(=O)c1ccccc1,308.15,ethanol,CCO,0.08696,1.6051161639401401,0.20550646822538837,Benzamide,55-21-0,2331,No,10.1016/j.molliq.2019.110885
NC(=O)c1ccccc1,313.15,ethanol,CCO,0.1013,1.88928278868564,0.2762969681779823,Benzamide,55-21-0,2331,No,10.1016/j.molliq.2019.110885
NC(=O)c1ccccc1,318.15,ethanol,CCO,0.12040000000000001,2.280844802353778,0.35809573517825427,Benzamide,55-21-0,2331,No,10.1016/j.molliq.2019.110885
NC(=O)c1ccccc1,323.15,ethanol,CCO,0.1434,2.773324304318983,0.44300065765610025,Benzamide,55-21-0,2331,No,10.1016/j.molliq.2019.110885
CC1(C)S[C@@H]2[C@H](NC(=O)[C@H](NC(=O)N3CCNC3=O)c3ccccc3)C(=O)N2[C@H]1C(=O)O,278.15,ethanol,CCO,0.000687,0.011977427409864428,-1.921636452537515,Azlocillin,37091-66-0,6479523,Yes,10.1016/j.molliq.2019.110897
CC1(C)S[C@@H]2[C@H](NC(=O)[C@H](NC(=O)N3CCNC3=O)c3ccccc3)C(=O)N2[C@H]1C(=O)O,283.15,ethanol,CCO,0.000805,0.013948322758282722,-1.8554780117893648,Azlocillin,37091-66-0,6479523,Yes,10.1016/j.molliq.2019.110897
CC1(C)S[C@@H]2[C@H](NC(=O)[C@H](NC(=O)N3CCNC3=O)c3ccccc3)C(=O)N2[C@H]1C(=O)O,288.15,ethanol,CCO,0.0009539999999999999,0.016443397609320332,-1.7840084416302002,Azlocillin,37091-66-0,6479523,Yes,10.1016/j.molliq.2019.110897
CC1(C)S[C@@H]2[C@H](NC(=O)[C@H](NC(=O)N3CCNC3=O)c3ccccc3)C(=O)N2[C@H]1C(=O)O,293.15,ethanol,CCO,0.0011300000000000001,0.019388326573685624,-1.7124596737050488,Azlocillin,37091-66-0,6479523,Yes,10.1016/j.molliq.2019.110897
CC1(C)S[C@@H]2[C@H](NC(=O)[C@H](NC(=O)N3CCNC3=O)c3ccccc3)C(=O)N2[C@H]1C(=O)O,298.15,ethanol,CCO,0.00131,0.022363475318701052,-1.6504607055059204,Azlocillin,37091-66-0,6479523,Yes,10.1016/j.molliq.2019.110897
CC1(C)S[C@@H]2[C@H](NC(=O)[C@H](NC(=O)N3CCNC3=O)c3ccccc3)C(=O)N2[C@H]1C(=O)O,303.15,ethanol,CCO,0.00165,0.028014815037183664,-1.5526122405387532,Azlocillin,37091-66-0,6479523,Yes,10.1016/j.molliq.2019.110897
CC1(C)S[C@@H]2[C@H](NC(=O)[C@H](NC(=O)N3CCNC3=O)c3ccccc3)C(=O)N2[C@H]1C(=O)O,308.15,ethanol,CCO,0.00197,0.03326590719017861,-1.4780006284687552,Azlocillin,37091-66-0,6479523,Yes,10.1016/j.molliq.2019.110897
CC1(C)S[C@@H]2[C@H](NC(=O)[C@H](NC(=O)N3CCNC3=O)c3ccccc3)C(=O)N2[C@H]1C(=O)O,313.15,ethanol,CCO,0.00245,0.04116552664956955,-1.385466324087299,Azlocillin,37091-66-0,6479523,Yes,10.1016/j.molliq.2019.110897
CC1(C)S[C@@H]2[C@H](NC(=O)[C@H](NC(=O)N3CCNC3=O)c3ccccc3)C(=O)N2[C@H]1C(=O)O,318.15,ethanol,CCO,0.00296,0.04946905315585572,-1.3056664020094262,Azlocillin,37091-66-0,6479523,Yes,10.1016/j.molliq.2019.110897
CC1(C)S[C@@H]2[C@H](NC(=O)[C@H](NC(=O)N3CCNC3=O)c3ccccc3)C(=O)N2[C@H]1C(=O)O,323.15,ethanol,CCO,0.0036799999999999997,0.061189731381729395,-1.2133214533189376,Azlocillin,37091-66-0,6479523,Yes,10.1016/j.molliq.2019.110897
O=C(NC(Cc1cc(=O)[nH]c2ccccc12)C(=O)O)c1ccc(Cl)cc1,288.15,ethanol,CCO,7.58e-05,0.0013053614873718945,-2.884269204623497,Rebamipide,90098-04-7,5042,No,10.1016/j.molliq.2019.111041
O=C(NC(Cc1cc(=O)[nH]c2ccccc12)C(=O)O)c1ccc(Cl)cc1,293.15,ethanol,CCO,8.609999999999999e-05,0.0014757452647973862,-2.830988601618992,Rebamipide,90098-04-7,5042,No,10.1016/j.molliq.2019.111041
O=C(NC(Cc1cc(=O)[nH]c2ccccc12)C(=O)O)c1ccc(Cl)cc1,298.15,ethanol,CCO,9.68e-05,0.0016505021680541794,-2.782383900856028,Rebamipide,90098-04-7,5042,No,10.1016/j.molliq.2019.111041
O=C(NC(Cc1cc(=O)[nH]c2ccccc12)C(=O)O)c1ccc(Cl)cc1,303.15,ethanol,CCO,0.000109,0.0018478234579499967,-2.733339523863006,Rebamipide,90098-04-7,5042,No,10.1016/j.molliq.2019.111041
O=C(NC(Cc1cc(=O)[nH]c2ccccc12)C(=O)O)c1ccc(Cl)cc1,308.15,ethanol,CCO,0.000122,0.0020563146008725263,-2.686910440761021,Rebamipide,90098-04-7,5042,No,10.1016/j.molliq.2019.111041
CCO.C[C@H]1c2cccc(O)c2C(O)=C2C(=O)[C@]3(O)C(O)=C(C(N)=O)C(=O)[C@@H](N(C)C)[C@@H]3[C@@H](O)[C@@H]21.C[C@H]1c2cccc(O)c2C(O)=C2C(=O)[C@]3(O)C(O)=C(C(N)=O)C(=O)[C@@H](N(C)C)[C@@H]3[C@@H](O)[C@@H]21.Cl.Cl.O,278.15,ethanol,CCO,0.001994,0.034809705517816064,-1.4582996507326167,Doxycycline hyclate,24390-14-5,54686183,No,10.1016/j.molliq.2019.111138
CCO.C[C@H]1c2cccc(O)c2C(O)=C2C(=O)[C@]3(O)C(O)=C(C(N)=O)C(=O)[C@@H](N(C)C)[C@@H]3[C@@H](O)[C@@H]21.C[C@H]1c2cccc(O)c2C(O)=C2C(=O)[C@]3(O)C(O)=C(C(N)=O)C(=O)[C@@H](N(C)C)[C@@H]3[C@@H](O)[C@@H]21.Cl.Cl.O,283.15,ethanol,CCO,0.002216,0.03845117189424992,-1.4150904194659226,Doxycycline hyclate,24390-14-5,54686183,No,10.1016/j.molliq.2019.111138
CCO.C[C@H]1c2cccc(O)c2C(O)=C2C(=O)[C@]3(O)C(O)=C(C(N)=O)C(=O)[C@@H](N(C)C)[C@@H]3[C@@H](O)[C@@H]21.C[C@H]1c2cccc(O)c2C(O)=C2C(=O)[C@]3(O)C(O)=C(C(N)=O)C(=O)[C@@H](N(C)C)[C@@H]3[C@@H](O)[C@@H]21.Cl.Cl.O,288.15,ethanol,CCO,0.00248,0.042811331754577964,-1.3684412621290525,Doxycycline hyclate,24390-14-5,54686183,No,10.1016/j.molliq.2019.111138
CCO.C[C@H]1c2cccc(O)c2C(O)=C2C(=O)[C@]3(O)C(O)=C(C(N)=O)C(=O)[C@@H](N(C)C)[C@@H]3[C@@H](O)[C@@H]21.C[C@H]1c2cccc(O)c2C(O)=C2C(=O)[C@]3(O)C(O)=C(C(N)=O)C(=O)[C@@H](N(C)C)[C@@H]3[C@@H](O)[C@@H]21.Cl.Cl.O,293.15,ethanol,CCO,0.002781,0.047794871345630006,-1.3206187030906322,Doxycycline hyclate,24390-14-5,54686183,No,10.1016/j.molliq.2019.111138
CCO.C[C@H]1c2cccc(O)c2C(O)=C2C(=O)[C@]3(O)C(O)=C(C(N)=O)C(=O)[C@@H](N(C)C)[C@@H]3[C@@H](O)[C@@H]21.C[C@H]1c2cccc(O)c2C(O)=C2C(=O)[C@]3(O)C(O)=C(C(N)=O)C(=O)[C@@H](N(C)C)[C@@H]3[C@@H](O)[C@@H]21.Cl.Cl.O,298.15,ethanol,CCO,0.003131,0.05354805205698359,-1.2712563230821765,Doxycycline hyclate,24390-14-5,54686183,No,10.1016/j.molliq.2019.111138
CCO.C[C@H]1c2cccc(O)c2C(O)=C2C(=O)[C@]3(O)C(O)=C(C(N)=O)C(=O)[C@@H](N(C)C)[C@@H]3[C@@H](O)[C@@H]21.C[C@H]1c2cccc(O)c2C(O)=C2C(=O)[C@]3(O)C(O)=C(C(N)=O)C(=O)[C@@H](N(C)C)[C@@H]3[C@@H](O)[C@@H]21.Cl.Cl.O,302.85,ethanol,CCO,0.003273,0.05567234835054941,-1.2543604590563655,Doxycycline hyclate,24390-14-5,54686183,No,10.1016/j.molliq.2019.111138
CCO.C[C@H]1c2cccc(O)c2C(O)=C2C(=O)[C@]3(O)C(O)=C(C(N)=O)C(=O)[C@@H](N(C)C)[C@@H]3[C@@H](O)[C@@H]21.C[C@H]1c2cccc(O)c2C(O)=C2C(=O)[C@]3(O)C(O)=C(C(N)=O)C(=O)[C@@H](N(C)C)[C@@H]3[C@@H](O)[C@@H]21.Cl.Cl.O,307.25,ethanol,CCO,0.003645,0.061717738231153646,-1.2095899978993587,Doxycycline hyclate,24390-14-5,54686183,No,10.1016/j.molliq.2019.111138
CCO.C[C@H]1c2cccc(O)c2C(O)=C2C(=O)[C@]3(O)C(O)=C(C(N)=O)C(=O)[C@@H](N(C)C)[C@@H]3[C@@H](O)[C@@H]21.C[C@H]1c2cccc(O)c2C(O)=C2C(=O)[C@]3(O)C(O)=C(C(N)=O)C(=O)[C@@H](N(C)C)[C@@H]3[C@@H](O)[C@@H]21.Cl.Cl.O,312.95,ethanol,CCO,0.004093,0.06889017959216895,-1.1618426830692152,Doxycycline hyclate,24390-14-5,54686183,No,10.1016/j.molliq.2019.111138
CCO.C[C@H]1c2cccc(O)c2C(O)=C2C(=O)[C@]3(O)C(O)=C(C(N)=O)C(=O)[C@@H](N(C)C)[C@@H]3[C@@H](O)[C@@H]21.C[C@H]1c2cccc(O)c2C(O)=C2C(=O)[C@]3(O)C(O)=C(C(N)=O)C(=O)[C@@H](N(C)C)[C@@H]3[C@@H](O)[C@@H]21.Cl.Cl.O,318.15,ethanol,CCO,0.004699999999999999,0.07868615478051492,-1.1041016771884844,Doxycycline hyclate,24390-14-5,54686183,No,10.1016/j.molliq.2019.111138
CCO.C[C@H]1c2cccc(O)c2C(O)=C2C(=O)[C@]3(O)C(O)=C(C(N)=O)C(=O)[C@@H](N(C)C)[C@@H]3[C@@H](O)[C@@H]21.C[C@H]1c2cccc(O)c2C(O)=C2C(=O)[C@]3(O)C(O)=C(C(N)=O)C(=O)[C@@H](N(C)C)[C@@H]3[C@@H](O)[C@@H]21.Cl.Cl.O,323.05,ethanol,CCO,0.005222,0.08698671278365558,-1.0605470807772728,Doxycycline hyclate,24390-14-5,54686183,No,10.1016/j.molliq.2019.111138
CC(=O)NS(=O)(=O)c1ccc(N)cc1,278.15,ethanol,CCO,0.01008,0.1774061948894893,-0.7510312190062812,Sulfacetamide,144-80-9,5320,Yes,10.1016/j.molliq.2019.111219
CC(=O)NS(=O)(=O)c1ccc(N)cc1,283.15,ethanol,CCO,0.01103,0.1930939891523243,-0.7142312452190913,Sulfacetamide,144-80-9,5320,Yes,10.1016/j.molliq.2019.111219
CC(=O)NS(=O)(=O)c1ccc(N)cc1,288.15,ethanol,CCO,0.01213,0.2114412282995382,-0.6748103269754657,Sulfacetamide,144-80-9,5320,Yes,10.1016/j.molliq.2019.111219
CC(=O)NS(=O)(=O)c1ccc(N)cc1,293.15,ethanol,CCO,0.01334,0.23171767392998635,-0.6350408397640465,Sulfacetamide,144-80-9,5320,Yes,10.1016/j.molliq.2019.111219
CC(=O)NS(=O)(=O)c1ccc(N)cc1,298.15,ethanol,CCO,0.01465,0.25348122884408614,-0.5960541961384339,Sulfacetamide,144-80-9,5320,Yes,10.1016/j.molliq.2019.111219
CC(=O)NS(=O)(=O)c1ccc(N)cc1,303.15,ethanol,CCO,0.01623,0.27964791309264675,-0.5533884173002585,Sulfacetamide,144-80-9,5320,Yes,10.1016/j.molliq.2019.111219
CC(=O)NS(=O)(=O)c1ccc(N)cc1,308.15,ethanol,CCO,0.01846,0.31695706399869394,-0.49899956469507795,Sulfacetamide,144-80-9,5320,Yes,10.1016/j.molliq.2019.111219
CC(=O)NS(=O)(=O)c1ccc(N)cc1,313.15,ethanol,CCO,0.02169,0.3716082300027357,-0.429914676257528,Sulfacetamide,144-80-9,5320,Yes,10.1016/j.molliq.2019.111219
NC(=O)Cc1ccccc1,273.75,ethanol,CCO,0.00973902,0.17216679143894623,-0.7640506141231158,2-phenylacetamide,103-81-1,7680,No,10.1016/j.molliq.2019.111264
NC(=O)Cc1ccccc1,279.15,ethanol,CCO,0.011249519999999999,0.19800791621176547,-0.703317446615425,2-phenylacetamide,103-81-1,7680,No,10.1016/j.molliq.2019.111264
NC(=O)Cc1ccccc1,284.15,ethanol,CCO,0.01302453,0.22841142019687335,-0.6412821858706155,2-phenylacetamide,103-81-1,7680,No,10.1016/j.molliq.2019.111264
NC(=O)Cc1ccccc1,289.15,ethanol,CCO,0.01518708,0.26545839286281603,-0.5760035392382994,2-phenylacetamide,103-81-1,7680,No,10.1016/j.molliq.2019.111264
NC(=O)Cc1ccccc1,293.75,ethanol,CCO,0.017869780000000002,0.31161554160558763,-0.5063808903280123,2-phenylacetamide,103-81-1,7680,No,10.1016/j.molliq.2019.111264
NC(=O)Cc1ccccc1,299.15,ethanol,CCO,0.0213847,0.37201032367402515,-0.42944500782656914,2-phenylacetamide,103-81-1,7680,No,10.1016/j.molliq.2019.111264
NC(=O)Cc1ccccc1,303.25,ethanol,CCO,0.02459142,0.42724048144167087,-0.369327604214966,2-phenylacetamide,103-81-1,7680,No,10.1016/j.molliq.2019.111264
NC(=O)Cc1ccccc1,308.95,ethanol,CCO,0.02980106,0.5172096278530618,-0.2863333993281103,2-phenylacetamide,103-81-1,7680,No,10.1016/j.molliq.2019.111264
NC(=O)Cc1ccccc1,313.15,ethanol,CCO,0.03425969,0.5946005877935954,-0.22577466580819375,2-phenylacetamide,103-81-1,7680,No,10.1016/j.molliq.2019.111264
NC(=O)Cc1ccccc1,319.15,ethanol,CCO,0.041089839999999996,0.7132359350616859,-0.14676678382837005,2-phenylacetamide,103-81-1,7680,No,10.1016/j.molliq.2019.111264
NC(=O)Cc1ccccc1,324.95,ethanol,CCO,0.04871669,0.846768236277584,-0.07223544147466171,2-phenylacetamide,103-81-1,7680,No,10.1016/j.molliq.2019.111264
O=C1OC(=O)[C@H]2[C@@H]1[C@H]1C=C[C@H]2C1,278.15,ethanol,CCO,0.00405,0.07084771288024665,-1.1496741651698144,"cis-5-norbornene-endo-2,3-dicarboxylic anhydride",,98507,No,10.1016/j.molliq.2019.111396
O=C1OC(=O)[C@H]2[C@@H]1[C@H]1C=C[C@H]2C1,283.15,ethanol,CCO,0.00536,0.09329862193201269,-1.0301247709559924,"cis-5-norbornene-endo-2,3-dicarboxylic anhydride",,98507,No,10.1016/j.molliq.2019.111396
O=C1OC(=O)[C@H]2[C@@H]1[C@H]1C=C[C@H]2C1,288.15,ethanol,CCO,0.00707,0.12261100445407665,-0.9114705497261867,"cis-5-norbornene-endo-2,3-dicarboxylic anhydride",,98507,No,10.1016/j.molliq.2019.111396
O=C1OC(=O)[C@H]2[C@@H]1[C@H]1C=C[C@H]2C1,293.15,ethanol,CCO,0.00927,0.1603597139093322,-0.7949047272263874,"cis-5-norbornene-endo-2,3-dicarboxylic anhydride",,98507,No,10.1016/j.molliq.2019.111396
O=C1OC(=O)[C@H]2[C@@H]1[C@H]1C=C[C@H]2C1,298.15,ethanol,CCO,0.01172,0.20218377693894057,-0.6942536947813983,"cis-5-norbornene-endo-2,3-dicarboxylic anhydride",,98507,No,10.1016/j.molliq.2019.111396
O=C1OC(=O)[C@H]2[C@@H]1[C@H]1C=C[C@H]2C1,303.15,ethanol,CCO,0.01555,0.26774623191315217,-0.5722766324320191,"cis-5-norbornene-endo-2,3-dicarboxylic anhydride",,98507,No,10.1016/j.molliq.2019.111396
O=C1OC(=O)[C@H]2[C@@H]1[C@H]1C=C[C@H]2C1,308.15,ethanol,CCO,0.01999,0.3437629188838946,-0.4637409717229579,"cis-5-norbornene-endo-2,3-dicarboxylic anhydride",,98507,No,10.1016/j.molliq.2019.111396
O=C1OC(=O)[C@H]2[C@@H]1[C@H]1C=C[C@H]2C1,313.15,ethanol,CCO,0.025490000000000002,0.4384153989584296,-0.3581142000409725,"cis-5-norbornene-endo-2,3-dicarboxylic anhydride",,98507,No,10.1016/j.molliq.2019.111396
O=C1OC(=O)[C@H]2[C@@H]1[C@H]1C=C[C@H]2C1,318.15,ethanol,CCO,0.03211,0.5528009384707475,-0.2574312283467359,"cis-5-norbornene-endo-2,3-dicarboxylic anhydride",,98507,No,10.1016/j.molliq.2019.111396
O=C1OC(=O)[C@H]2[C@@H]1[C@H]1C=C[C@H]2C1,323.15,ethanol,CCO,0.04042,0.6978220654794194,-0.1562553020641153,"cis-5-norbornene-endo-2,3-dicarboxylic anhydride",,98507,No,10.1016/j.molliq.2019.111396
CC(=O)c1c(C)c([N+](=O)[O-])c(C(C)(C)C)c([N+](=O)[O-])c1C,278.15,ethanol,CCO,0.002012,0.035124569063048755,-1.4543889953342102,Musk ketone,81-14-1,6669,No,10.1016/j.molliq.2019.111437
CC(=O)c1c(C)c([N+](=O)[O-])c(C(C)(C)C)c([N+](=O)[O-])c1C,283.15,ethanol,CCO,0.00251,0.043565382451245034,-1.3608584690341012,Musk ketone,81-14-1,6669,No,10.1016/j.molliq.2019.111437
CC(=O)c1c(C)c([N+](=O)[O-])c(C(C)(C)C)c([N+](=O)[O-])c1C,288.15,ethanol,CCO,0.003045,0.052594509612338934,-1.2790595898675072,Musk ketone,81-14-1,6669,No,10.1016/j.molliq.2019.111437
CC(=O)c1c(C)c([N+](=O)[O-])c(C(C)(C)C)c([N+](=O)[O-])c1C,293.15,ethanol,CCO,0.003635,0.06252544687952168,-1.203943195613185,Musk ketone,81-14-1,6669,No,10.1016/j.molliq.2019.111437
CC(=O)c1c(C)c([N+](=O)[O-])c(C(C)(C)C)c([N+](=O)[O-])c1C,298.15,ethanol,CCO,0.004351,0.07450433136210155,-1.127818478500303,Musk ketone,81-14-1,6669,No,10.1016/j.molliq.2019.111437
CC(=O)c1c(C)c([N+](=O)[O-])c(C(C)(C)C)c([N+](=O)[O-])c1C,303.15,ethanol,CCO,0.005208,0.0887412065096081,-1.0518746709890474,Musk ketone,81-14-1,6669,No,10.1016/j.molliq.2019.111437