SMILES_Solute,Temperature_K,Solvent,SMILES_Solvent,Solubility(mole_fraction),Solubility(mol/L),LogS(mol/L),Compound_Name,CAS,PubChem_CID,FDA_Approved,Source
Cc1ccc([N+](=O)[O-])cc1S(=O)(=O)[O-].[Na+],316.45,ethanol,CCO,0.0024609999999999996,0.041190079415672674,-1.3852073707103663,Sodium 4-nitrotoluene-2-sulfonate,5258-64-0,21329,No,10.1016/j.jct.2011.04.004
Cc1ccc([N+](=O)[O-])cc1S(=O)(=O)[O-].[Na+],321.3,ethanol,CCO,0.002595,0.04319934270169825,-1.3645228611294655,Sodium 4-nitrotoluene-2-sulfonate,5258-64-0,21329,No,10.1016/j.jct.2011.04.004
Cc1ccc([N+](=O)[O-])cc1S(=O)(=O)[O-].[Na+],326.1,ethanol,CCO,0.002726,0.045137209112480245,-1.34546529737435,Sodium 4-nitrotoluene-2-sulfonate,5258-64-0,21329,No,10.1016/j.jct.2011.04.004
Cc1ccc([N+](=O)[O-])cc1S(=O)(=O)[O-].[Na+],330.6,ethanol,CCO,0.002854,0.04701840096028653,-1.3277321447970545,Sodium 4-nitrotoluene-2-sulfonate,5258-64-0,21329,No,10.1016/j.jct.2011.04.004
Cc1ccc([N+](=O)[O-])cc1S(=O)(=O)[O-].[Na+],335.83,ethanol,CCO,0.003009,0.04928026357425463,-1.3073269780242673,Sodium 4-nitrotoluene-2-sulfonate,5258-64-0,21329,No,10.1016/j.jct.2011.04.004
Cc1ccc([N+](=O)[O-])cc1S(=O)(=O)[O-].[Na+],338.03,ethanol,CCO,0.0031219999999999998,0.051006043002285666,-1.2923783672927762,Sodium 4-nitrotoluene-2-sulfonate,5258-64-0,21329,No,10.1016/j.jct.2011.04.004
C[C@@H]1CC[C@@]2(OC1)O[C@H]1C[C@H]3[C@@H]4CC=C5C[C@@H](O)CC[C@]5(C)[C@H]4CC[C@]3(C)[C@H]1[C@@H]2C,299.15,ethanol,CCO,0.0013298,0.022668775907690453,-1.6445719307287323,Diosgenin,512-04-9,99474,No,10.1016/j.jct.2011.11.009
C[C@@H]1CC[C@@]2(OC1)O[C@H]1C[C@H]3[C@@H]4CC=C5C[C@@H](O)CC[C@]5(C)[C@H]4CC[C@]3(C)[C@H]1[C@@H]2C,303.15,ethanol,CCO,0.0014409,0.024459451007532062,-1.6115532949315865,Diosgenin,512-04-9,99474,No,10.1016/j.jct.2011.11.009
C[C@@H]1CC[C@@]2(OC1)O[C@H]1C[C@H]3[C@@H]4CC=C5C[C@@H](O)CC[C@]5(C)[C@H]4CC[C@]3(C)[C@H]1[C@@H]2C,306.15,ethanol,CCO,0.0015272,0.025835866952079813,-1.5877769606254952,Diosgenin,512-04-9,99474,No,10.1016/j.jct.2011.11.009
C[C@@H]1CC[C@@]2(OC1)O[C@H]1C[C@H]3[C@@H]4CC=C5C[C@@H](O)CC[C@]5(C)[C@H]4CC[C@]3(C)[C@H]1[C@@H]2C,308.65,ethanol,CCO,0.001608,0.027128599850408643,-1.5665726202794288,Diosgenin,512-04-9,99474,No,10.1016/j.jct.2011.11.009
C[C@@H]1CC[C@@]2(OC1)O[C@H]1C[C@H]3[C@@H]4CC=C5C[C@@H](O)CC[C@]5(C)[C@H]4CC[C@]3(C)[C@H]1[C@@H]2C,311.65,ethanol,CCO,0.0016923,0.028456775933417167,-1.5458143057149147,Diosgenin,512-04-9,99474,No,10.1016/j.jct.2011.11.009
C[C@@H]1CC[C@@]2(OC1)O[C@H]1C[C@H]3[C@@H]4CC=C5C[C@@H](O)CC[C@]5(C)[C@H]4CC[C@]3(C)[C@H]1[C@@H]2C,313.65,ethanol,CCO,0.0017478,0.029325246504312872,-1.5327583285726072,Diosgenin,512-04-9,99474,No,10.1016/j.jct.2011.11.009
C[C@@H]1CC[C@@]2(OC1)O[C@H]1C[C@H]3[C@@H]4CC=C5C[C@@H](O)CC[C@]5(C)[C@H]4CC[C@]3(C)[C@H]1[C@@H]2C,315.65,ethanol,CCO,0.0018356,0.030731333713877214,-1.5124185913216173,Diosgenin,512-04-9,99474,No,10.1016/j.jct.2011.11.009
C[C@@H]1CC[C@@]2(OC1)O[C@H]1C[C@H]3[C@@H]4CC=C5C[C@@H](O)CC[C@]5(C)[C@H]4CC[C@]3(C)[C@H]1[C@@H]2C,317.15,ethanol,CCO,0.0019255,0.03218443940241171,-1.4923540511321696,Diosgenin,512-04-9,99474,No,10.1016/j.jct.2011.11.009
C[C@@H]1CC[C@@]2(OC1)O[C@H]1C[C@H]3[C@@H]4CC=C5C[C@@H](O)CC[C@]5(C)[C@H]4CC[C@]3(C)[C@H]1[C@@H]2C,319.15,ethanol,CCO,0.0019976,0.033316059561251915,-1.4773463701704947,Diosgenin,512-04-9,99474,No,10.1016/j.jct.2011.11.009
C[C@@H]1CC[C@@]2(OC1)O[C@H]1C[C@H]3[C@@H]4CC=C5C[C@@H](O)CC[C@]5(C)[C@H]4CC[C@]3(C)[C@H]1[C@@H]2C,320.65,ethanol,CCO,0.0020793,0.034622211396799156,-1.4606451962308395,Diosgenin,512-04-9,99474,No,10.1016/j.jct.2011.11.009
C[C@@H]1CC[C@@]2(OC1)O[C@H]1C[C@H]3[C@@H]4CC=C5C[C@@H](O)CC[C@]5(C)[C@H]4CC[C@]3(C)[C@H]1[C@@H]2C,322.65,ethanol,CCO,0.0021484,0.0356935885335215,-1.4474097870972602,Diosgenin,512-04-9,99474,No,10.1016/j.jct.2011.11.009
C[C@@H]1CC[C@@]2(OC1)O[C@H]1C[C@H]3[C@@H]4CC=C5C[C@@H](O)CC[C@]5(C)[C@H]4CC[C@]3(C)[C@H]1[C@@H]2C,324.15,ethanol,CCO,0.0022372,0.037108427180959844,-1.4305274525794212,Diosgenin,512-04-9,99474,No,10.1016/j.jct.2011.11.009
C[C@@H]1CC[C@@]2(OC1)O[C@H]1C[C@H]3[C@@H]4CC=C5C[C@@H](O)CC[C@]5(C)[C@H]4CC[C@]3(C)[C@H]1[C@@H]2C,326.15,ethanol,CCO,0.0023269,0.03851127178541689,-1.4144121391215265,Diosgenin,512-04-9,99474,No,10.1016/j.jct.2011.11.009
C[C@@H]1CC[C@@]2(OC1)O[C@H]1C[C@H]3[C@@H]4CC=C5C[C@@H](O)CC[C@]5(C)[C@H]4CC[C@]3(C)[C@H]1[C@@H]2C,327.65,ethanol,CCO,0.0024146,0.03989739415805272,-1.3990554687176477,Diosgenin,512-04-9,99474,No,10.1016/j.jct.2011.11.009
C[C@@H]1CC[C@@]2(OC1)O[C@H]1C[C@H]3[C@@H]4CC=C5C[C@@H](O)CC[C@]5(C)[C@H]4CC[C@]3(C)[C@H]1[C@@H]2C,328.65,ethanol,CCO,0.0024902,0.04110232941924991,-1.3861335643706785,Diosgenin,512-04-9,99474,No,10.1016/j.jct.2011.11.009
C[C@@H]1CC[C@@]2(OC1)O[C@H]1C[C@H]3[C@@H]4CC=C5C[C@@H](O)CC[C@]5(C)[C@H]4CC[C@]3(C)[C@H]1[C@@H]2C,329.65,ethanol,CCO,0.0025849,0.04262030642138441,-1.37038343222299,Diosgenin,512-04-9,99474,No,10.1016/j.jct.2011.11.009
C[C@@H]1CC[C@@]2(OC1)O[C@H]1C[C@H]3[C@@H]4CC=C5C[C@@H](O)CC[C@]5(C)[C@H]4CC[C@]3(C)[C@H]1[C@@H]2C,330.65,ethanol,CCO,0.0026776,0.04410193961027942,-1.355542309772127,Diosgenin,512-04-9,99474,No,10.1016/j.jct.2011.11.009
C[C@@H]1CC[C@@]2(OC1)O[C@H]1C[C@H]3[C@@H]4CC=C5C[C@@H](O)CC[C@]5(C)[C@H]4CC[C@]3(C)[C@H]1[C@@H]2C,331.65,ethanol,CCO,0.0027557,0.04533944119353635,-1.3435238368354203,Diosgenin,512-04-9,99474,No,10.1016/j.jct.2011.11.009
C[C@@H]1CC[C@@]2(OC1)O[C@H]1C[C@H]3[C@@H]4CC=C5C[C@@H](O)CC[C@]5(C)[C@H]4CC[C@]3(C)[C@H]1[C@@H]2C,332.65,ethanol,CCO,0.0028368,0.04662361137446797,-1.331394089904688,Diosgenin,512-04-9,99474,No,10.1016/j.jct.2011.11.009
O=C(O)c1cccnc1,283.38,ethanol,CCO,0.002235,0.03880410637581055,-1.4111223135297493,Nicotinic acid,59-67-6,938,Yes,10.1016/j.jct.2011.11.023
O=C(O)c1cccnc1,293.46,ethanol,CCO,0.0030870000000000003,0.053050296224003056,-1.275312186727942,Nicotinic acid,59-67-6,938,Yes,10.1016/j.jct.2011.11.023
O=C(O)c1cccnc1,303.15,ethanol,CCO,0.004234,0.07207426094697335,-1.1422198021939607,Nicotinic acid,59-67-6,938,Yes,10.1016/j.jct.2011.11.023
O=C(O)c1cccnc1,312.83,ethanol,CCO,0.006051999999999999,0.10207716063910431,-0.9910714187161641,Nicotinic acid,59-67-6,938,Yes,10.1016/j.jct.2011.11.023
O=C(O)c1cccnc1,322.64,ethanol,CCO,0.008427,0.14089458344965894,-0.8511057025836236,Nicotinic acid,59-67-6,938,Yes,10.1016/j.jct.2011.11.023
O=C(O)c1cccnc1,332.43,ethanol,CCO,0.011465,0.19012359208399152,-0.7209639889937377,Nicotinic acid,59-67-6,938,Yes,10.1016/j.jct.2011.11.023
C[C@@H]1CC[C@@]2(OC1)O[C@H]1C[C@H]3[C@@H]4CC=C5C[C@@H](O)CC[C@]5(C)[C@H]4CC[C@]3(C)[C@H]1[C@@H]2C,289.15,ethanol,CCO,0.0010628999999999999,0.018315980894248417,-1.7371698181650224,Diosgenin,512-04-9,99474,No,10.1016/j.jct.2012.02.002
C[C@@H]1CC[C@@]2(OC1)O[C@H]1C[C@H]3[C@@H]4CC=C5C[C@@H](O)CC[C@]5(C)[C@H]4CC[C@]3(C)[C@H]1[C@@H]2C,301.05,ethanol,CCO,0.0014718,0.02503986255093582,-1.6013680593886825,Diosgenin,512-04-9,99474,No,10.1016/j.jct.2012.02.002
C[C@@H]1CC[C@@]2(OC1)O[C@H]1C[C@H]3[C@@H]4CC=C5C[C@@H](O)CC[C@]5(C)[C@H]4CC[C@]3(C)[C@H]1[C@@H]2C,305.75,ethanol,CCO,0.001701,0.028794004715595786,-1.5406979285594973,Diosgenin,512-04-9,99474,No,10.1016/j.jct.2012.02.002
C[C@@H]1CC[C@@]2(OC1)O[C@H]1C[C@H]3[C@@H]4CC=C5C[C@@H](O)CC[C@]5(C)[C@H]4CC[C@]3(C)[C@H]1[C@@H]2C,312.35,ethanol,CCO,0.0018825,0.031636063335398736,-1.4998175636725077,Diosgenin,512-04-9,99474,No,10.1016/j.jct.2012.02.002
C[C@@H]1CC[C@@]2(OC1)O[C@H]1C[C@H]3[C@@H]4CC=C5C[C@@H](O)CC[C@]5(C)[C@H]4CC[C@]3(C)[C@H]1[C@@H]2C,312.65,ethanol,CCO,0.0019631,0.03298204568417522,-1.481722411099129,Diosgenin,512-04-9,99474,No,10.1016/j.jct.2012.02.002
C[C@@H]1CC[C@@]2(OC1)O[C@H]1C[C@H]3[C@@H]4CC=C5C[C@@H](O)CC[C@]5(C)[C@H]4CC[C@]3(C)[C@H]1[C@@H]2C,316.65,ethanol,CCO,0.0022747,0.038056193964522804,-1.419574648073669,Diosgenin,512-04-9,99474,No,10.1016/j.jct.2012.02.002
C[C@@H]1CC[C@@]2(OC1)O[C@H]1C[C@H]3[C@@H]4CC=C5C[C@@H](O)CC[C@]5(C)[C@H]4CC[C@]3(C)[C@H]1[C@@H]2C,320.25,ethanol,CCO,0.0025343,0.04223689592852944,-1.3743080064459874,Diosgenin,512-04-9,99474,No,10.1016/j.jct.2012.02.002
C[C@@H]1CC[C@@]2(OC1)O[C@H]1C[C@H]3[C@@H]4CC=C5C[C@@H](O)CC[C@]5(C)[C@H]4CC[C@]3(C)[C@H]1[C@@H]2C,322.35,ethanol,CCO,0.0026945000000000003,0.044806399202455244,-1.34865995609452,Diosgenin,512-04-9,99474,No,10.1016/j.jct.2012.02.002
C[C@@H]1CC[C@@]2(OC1)O[C@H]1C[C@H]3[C@@H]4CC=C5C[C@@H](O)CC[C@]5(C)[C@H]4CC[C@]3(C)[C@H]1[C@@H]2C,324.05,ethanol,CCO,0.002898,0.04810648334653743,-1.317796389491424,Diosgenin,512-04-9,99474,No,10.1016/j.jct.2012.02.002
C[C@@H]1CC[C@@]2(OC1)O[C@H]1C[C@H]3[C@@H]4CC=C5C[C@@H](O)CC[C@]5(C)[C@H]4CC[C@]3(C)[C@H]1[C@@H]2C,325.65,ethanol,CCO,0.0030602,0.050714092107335004,-1.294871344925743,Diosgenin,512-04-9,99474,No,10.1016/j.jct.2012.02.002
C[C@@H]1CC[C@@]2(OC1)O[C@H]1C[C@H]3[C@@H]4CC=C5C[C@@H](O)CC[C@]5(C)[C@H]4CC[C@]3(C)[C@H]1[C@@H]2C,327.65,ethanol,CCO,0.0032376999999999996,0.05354197922062906,-1.2713055788212895,Diosgenin,512-04-9,99474,No,10.1016/j.jct.2012.02.002
C[C@@H]1CC[C@@]2(OC1)O[C@H]1C[C@H]3[C@@H]4CC=C5C[C@@H](O)CC[C@]5(C)[C@H]4CC[C@]3(C)[C@H]1[C@@H]2C,329.05,ethanol,CCO,0.0033753000000000003,0.055735247375115794,-1.2538700669603724,Diosgenin,512-04-9,99474,No,10.1016/j.jct.2012.02.002
C[C@@H]1CC[C@@]2(OC1)O[C@H]1C[C@H]3[C@@H]4CC=C5C[C@@H](O)CC[C@]5(C)[C@H]4CC[C@]3(C)[C@H]1[C@@H]2C,331.25,ethanol,CCO,0.0035255,0.058076588663743774,-1.2359989013992585,Diosgenin,512-04-9,99474,No,10.1016/j.jct.2012.02.002
C[C@@H]1CC[C@@]2(OC1)O[C@H]1C[C@H]3[C@@H]4CC=C5C[C@@H](O)CC[C@]5(C)[C@H]4CC[C@]3(C)[C@H]1[C@@H]2C,332.35,ethanol,CCO,0.0037153999999999998,0.06113872273104817,-1.2136836385025038,Diosgenin,512-04-9,99474,No,10.1016/j.jct.2012.02.002
C[C@@H]1CC[C@@]2(OC1)O[C@H]1C[C@H]3[C@@H]4CC=C5C[C@@H](O)CC[C@]5(C)[C@H]4CC[C@]3(C)[C@H]1[C@@H]2C,334.15,ethanol,CCO,0.0038794,0.06371496523724005,-1.1957585495073395,Diosgenin,512-04-9,99474,No,10.1016/j.jct.2012.02.002
Brc1sc(Br)c(Br)c1Br,281.25,ethanol,CCO,0.001491,0.02592780679750745,-1.5862342181332447,"2,3,4,5-tetrabromothiophene",3958-03-0,77565,No,10.1016/j.jct.2012.06.005
Brc1sc(Br)c(Br)c1Br,286.15,ethanol,CCO,0.0016530999999999998,0.028597420382451822,-1.543673140444166,"2,3,4,5-tetrabromothiophene",3958-03-0,77565,No,10.1016/j.jct.2012.06.005
Brc1sc(Br)c(Br)c1Br,290.15,ethanol,CCO,0.0017992999999999998,0.030994369859076217,-1.5087171887851594,"2,3,4,5-tetrabromothiophene",3958-03-0,77565,No,10.1016/j.jct.2012.06.005
Brc1sc(Br)c(Br)c1Br,293.15,ethanol,CCO,0.0019975,0.034302518825515986,-1.4646739886493974,"2,3,4,5-tetrabromothiophene",3958-03-0,77565,No,10.1016/j.jct.2012.06.005
Brc1sc(Br)c(Br)c1Br,297.15,ethanol,CCO,0.0022071,0.037740888937282856,-1.4231878748120494,"2,3,4,5-tetrabromothiophene",3958-03-0,77565,No,10.1016/j.jct.2012.06.005
Brc1sc(Br)c(Br)c1Br,302.15,ethanol,CCO,0.0026742000000000003,0.045495304603293256,-1.3420334229056285,"2,3,4,5-tetrabromothiophene",3958-03-0,77565,No,10.1016/j.jct.2012.06.005
Brc1sc(Br)c(Br)c1Br,307.15,ethanol,CCO,0.0030954,0.05238881543093113,-1.2807614213196843,"2,3,4,5-tetrabromothiophene",3958-03-0,77565,No,10.1016/j.jct.2012.06.005
Brc1sc(Br)c(Br)c1Br,311.65,ethanol,CCO,0.0035622,0.06001238210702595,-1.2217591341836755,"2,3,4,5-tetrabromothiophene",3958-03-0,77565,No,10.1016/j.jct.2012.06.005
Brc1sc(Br)c(Br)c1Br,315.65,ethanol,CCO,0.004039,0.06776991746602798,-1.16896304326761,"2,3,4,5-tetrabromothiophene",3958-03-0,77565,No,10.1016/j.jct.2012.06.005
Brc1sc(Br)c(Br)c1Br,320.15,ethanol,CCO,0.0047501,0.0793509445953845,-1.1004478990273259,"2,3,4,5-tetrabromothiophene",3958-03-0,77565,No,10.1016/j.jct.2012.06.005
Brc1sc(Br)c(Br)c1Br,325.15,ethanol,CCO,0.0056572,0.09405078169540777,-1.0266375904954066,"2,3,4,5-tetrabromothiophene",3958-03-0,77565,No,10.1016/j.jct.2012.06.005
CN(C)[C@@H]1C(O)=C(C(N)=O)C(=O)[C@@]2(O)C(O)=C3C(=O)c4c(O)cccc4[C@@](C)(O)[C@H]3C[C@@H]12.Cl,283.15,ethanol,CCO,0.0008837,0.015313172355470328,-1.814934829304609,Tetracycline hydrochloride,64-75-5,54704426,Yes,10.1016/j.jct.2012.08.007
CN(C)[C@@H]1C(O)=C(C(N)=O)C(=O)[C@@]2(O)C(O)=C3C(=O)c4c(O)cccc4[C@@](C)(O)[C@H]3C[C@@H]12.Cl,288.15,ethanol,CCO,0.000899,0.015494549974213961,-1.8098210329486615,Tetracycline hydrochloride,64-75-5,54704426,Yes,10.1016/j.jct.2012.08.007
CN(C)[C@@H]1C(O)=C(C(N)=O)C(=O)[C@@]2(O)C(O)=C3C(=O)c4c(O)cccc4[C@@](C)(O)[C@H]3C[C@@H]12.Cl,293.15,ethanol,CCO,0.0009581,0.01643607028417663,-1.78420201026945,Tetracycline hydrochloride,64-75-5,54704426,Yes,10.1016/j.jct.2012.08.007
CN(C)[C@@H]1C(O)=C(C(N)=O)C(=O)[C@@]2(O)C(O)=C3C(=O)c4c(O)cccc4[C@@](C)(O)[C@H]3C[C@@H]12.Cl,298.15,ethanol,CCO,0.0010432,0.017804081390230108,-1.7494804290352677,Tetracycline hydrochloride,64-75-5,54704426,Yes,10.1016/j.jct.2012.08.007
CN(C)[C@@H]1C(O)=C(C(N)=O)C(=O)[C@@]2(O)C(O)=C3C(=O)c4c(O)cccc4[C@@](C)(O)[C@H]3C[C@@H]12.Cl,303.15,ethanol,CCO,0.0011619,0.019717883183790873,-1.705139710639433,Tetracycline hydrochloride,64-75-5,54704426,Yes,10.1016/j.jct.2012.08.007
CN(C)[C@@H]1C(O)=C(C(N)=O)C(=O)[C@@]2(O)C(O)=C3C(=O)c4c(O)cccc4[C@@](C)(O)[C@H]3C[C@@H]12.Cl,308.15,ethanol,CCO,0.0013247,0.02235475780489134,-1.6506300309880328,Tetracycline hydrochloride,64-75-5,54704426,Yes,10.1016/j.jct.2012.08.007
CN(C)[C@@H]1C(O)=C(C(N)=O)C(=O)[C@@]2(O)C(O)=C3C(=O)c4c(O)cccc4[C@@](C)(O)[C@H]3C[C@@H]12.Cl,313.15,ethanol,CCO,0.0014868,0.02495749578648011,-1.6027989935358513,Tetracycline hydrochloride,64-75-5,54704426,Yes,10.1016/j.jct.2012.08.007
CN(C)[C@@H]1C(O)=C(C(N)=O)C(=O)[C@@]2(O)C(O)=C3C(=O)c4c(O)cccc4[C@@](C)(O)[C@H]3C[C@@H]12.Cl,318.15,ethanol,CCO,0.0018108,0.030228186156491456,-1.5195879118979545,Tetracycline hydrochloride,64-75-5,54704426,Yes,10.1016/j.jct.2012.08.007
O=C(O)c1ccccc1O,278.15,ethanol,CCO,0.1084,2.118202956900911,0.3259675699543059,Salicylic acid,69-72-7,338,Yes,10.1016/j.jct.2012.09.006
O=C(O)c1ccccc1O,283.15,ethanol,CCO,0.1169,2.291822540027674,0.3601809863885053,Salicylic acid,69-72-7,338,Yes,10.1016/j.jct.2012.09.006
O=C(O)c1ccccc1O,288.15,ethanol,CCO,0.1255,2.4712266623804564,0.39291258097737003,Salicylic acid,69-72-7,338,Yes,10.1016/j.jct.2012.09.006
O=C(O)c1ccccc1O,293.15,ethanol,CCO,0.1358,2.693124064243231,0.43025636053188254,Salicylic acid,69-72-7,338,Yes,10.1016/j.jct.2012.09.006
O=C(O)c1ccccc1O,298.15,ethanol,CCO,0.1455,2.9030173161912303,0.4628496263600478,Salicylic acid,69-72-7,338,Yes,10.1016/j.jct.2012.09.006
O=C(O)c1ccccc1O,303.15,ethanol,CCO,0.1566,3.1473482417958363,0.497944798560809,Salicylic acid,69-72-7,338,Yes,10.1016/j.jct.2012.09.006
O=C(O)c1ccccc1O,308.15,ethanol,CCO,0.1697,3.4444790354697,0.5371235457995811,Salicylic acid,69-72-7,338,Yes,10.1016/j.jct.2012.09.006
O=C(O)c1ccccc1O,313.15,ethanol,CCO,0.1821,3.731745365308141,0.5719120021124022,Salicylic acid,69-72-7,338,Yes,10.1016/j.jct.2012.09.006
O=C(O)c1ccccc1O,318.15,ethanol,CCO,0.1969,4.085362133452249,0.6112305591767243,Salicylic acid,69-72-7,338,Yes,10.1016/j.jct.2012.09.006
CN1c2ccccc2C(=O)N2CCc3c([nH]c4ccccc34)[C@H]21,283.2,ethanol,CCO,6.12e-05,0.0010604544358780367,-2.9745079869039985,Evodiamine,518-17-2,442088,No,10.1016/j.jct.2012.11.021
CN1c2ccccc2C(=O)N2CCc3c([nH]c4ccccc34)[C@H]21,293.2,ethanol,CCO,8.02e-05,0.001374493348799261,-2.861857357375091,Evodiamine,518-17-2,442088,No,10.1016/j.jct.2012.11.021
CN1c2ccccc2C(=O)N2CCc3c([nH]c4ccccc34)[C@H]21,303.2,ethanol,CCO,0.0001156,0.0019593305316357615,-2.7078922939915744,Evodiamine,518-17-2,442088,No,10.1016/j.jct.2012.11.021
CN1c2ccccc2C(=O)N2CCc3c([nH]c4ccccc34)[C@H]21,313.2,ethanol,CCO,0.0001728,0.002896211478097353,-2.5381697296235517,Evodiamine,518-17-2,442088,No,10.1016/j.jct.2012.11.021
CN1c2ccccc2C(=O)N2CCc3c([nH]c4ccccc34)[C@H]21,323.2,ethanol,CCO,0.0002565,0.004250758474550844,-2.37153357067384,Evodiamine,518-17-2,442088,No,10.1016/j.jct.2012.11.021
Brc1sc(Br)c(Br)c1Br,278.15,ethanol,CCO,0.00126,0.02197993727659391,-1.6579735512422835,"2,3,4,5-tetrabromothiophene",3958-03-0,77565,No,10.1016/j.jct.2013.05.023
Brc1sc(Br)c(Br)c1Br,282.15,ethanol,CCO,0.00134,0.023275556584100722,-1.6330999250184344,"2,3,4,5-tetrabromothiophene",3958-03-0,77565,No,10.1016/j.jct.2013.05.023
Brc1sc(Br)c(Br)c1Br,286.15,ethanol,CCO,0.00151,0.0261181513963858,-1.5830575650217742,"2,3,4,5-tetrabromothiophene",3958-03-0,77565,No,10.1016/j.jct.2013.05.023
Brc1sc(Br)c(Br)c1Br,290.15,ethanol,CCO,0.00181,0.031179020064105004,-1.5061375385198392,"2,3,4,5-tetrabromothiophene",3958-03-0,77565,No,10.1016/j.jct.2013.05.023
Brc1sc(Br)c(Br)c1Br,294.15,ethanol,CCO,0.0020599999999999998,0.03533778541464969,-1.4517606707979502,"2,3,4,5-tetrabromothiophene",3958-03-0,77565,No,10.1016/j.jct.2013.05.023
Brc1sc(Br)c(Br)c1Br,298.15,ethanol,CCO,0.00241,0.04118733153781596,-1.3852363443859588,"2,3,4,5-tetrabromothiophene",3958-03-0,77565,No,10.1016/j.jct.2013.05.023
Brc1sc(Br)c(Br)c1Br,302.15,ethanol,CCO,0.00268,0.04559424329376013,-1.341089987677195,"2,3,4,5-tetrabromothiophene",3958-03-0,77565,No,10.1016/j.jct.2013.05.023
Brc1sc(Br)c(Br)c1Br,306.15,ethanol,CCO,0.0030499999999999998,0.05167611120216774,-1.2867101758756894,"2,3,4,5-tetrabromothiophene",3958-03-0,77565,No,10.1016/j.jct.2013.05.023
Brc1sc(Br)c(Br)c1Br,310.15,ethanol,CCO,0.0035299999999999997,0.05956877827368918,-1.2249813069757938,"2,3,4,5-tetrabromothiophene",3958-03-0,77565,No,10.1016/j.jct.2013.05.023
Brc1sc(Br)c(Br)c1Br,314.15,ethanol,CCO,0.0038900000000000002,0.06537121078494726,-1.1846134710941763,"2,3,4,5-tetrabromothiophene",3958-03-0,77565,No,10.1016/j.jct.2013.05.023
Brc1sc(Br)c(Br)c1Br,318.15,ethanol,CCO,0.00442,0.07397765740540542,-1.1308994252781785,"2,3,4,5-tetrabromothiophene",3958-03-0,77565,No,10.1016/j.jct.2013.05.023
Brc1sc(Br)c(Br)c1Br,322.15,ethanol,CCO,0.00501,0.08352344781017723,-1.0781915864918499,"2,3,4,5-tetrabromothiophene",3958-03-0,77565,No,10.1016/j.jct.2013.05.023
CC(C)C1=CC2=CC[C@@H]3[C@](C)(CCC[C@@]3(C)C(=O)O)[C@H]2CC1,285.07,ethanol,CCO,0.01655,0.29098442865884233,-0.5361302506308564,Abietic acid,514-10-3,10569,No,10.1016/j.jct.2013.07.015
CC(C)C1=CC2=CC[C@@H]3[C@](C)(CCC[C@@]3(C)C(=O)O)[C@H]2CC1,288.7,ethanol,CCO,0.01828,0.3206858264808706,-0.4939202343876605,Abietic acid,514-10-3,10569,No,10.1016/j.jct.2013.07.015
CC(C)C1=CC2=CC[C@@H]3[C@](C)(CCC[C@@]3(C)C(=O)O)[C@H]2CC1,292.0,ethanol,CCO,0.02022,0.3541298033165112,-0.45083752178401393,Abietic acid,514-10-3,10569,No,10.1016/j.jct.2013.07.015
CC(C)C1=CC2=CC[C@@H]3[C@](C)(CCC[C@@]3(C)C(=O)O)[C@H]2CC1,294.8,ethanol,CCO,0.02193,0.3835591414906546,-0.41616766211199463,Abietic acid,514-10-3,10569,No,10.1016/j.jct.2013.07.015
CC(C)C1=CC2=CC[C@@H]3[C@](C)(CCC[C@@]3(C)C(=O)O)[C@H]2CC1,297.05,ethanol,CCO,0.02349,0.4104734991780422,-0.38671487638195584,Abietic acid,514-10-3,10569,No,10.1016/j.jct.2013.07.015
CC(C)C1=CC2=CC[C@@H]3[C@](C)(CCC[C@@]3(C)C(=O)O)[C@H]2CC1,299.63,ethanol,CCO,0.02529,0.4414737773676985,-0.35509508751727314,Abietic acid,514-10-3,10569,No,10.1016/j.jct.2013.07.015
CC(C)C1=CC2=CC[C@@H]3[C@](C)(CCC[C@@]3(C)C(=O)O)[C@H]2CC1,301.8,ethanol,CCO,0.02719,0.4744176328885071,-0.32383917773008125,Abietic acid,514-10-3,10569,No,10.1016/j.jct.2013.07.015
CC(C)C1=CC2=CC[C@@H]3[C@](C)(CCC[C@@]3(C)C(=O)O)[C@H]2CC1,304.05,ethanol,CCO,0.02909,0.5072838646955828,-0.29474895117582517,Abietic acid,514-10-3,10569,No,10.1016/j.jct.2013.07.015
CC(C)C1=CC2=CC[C@@H]3[C@](C)(CCC[C@@]3(C)C(=O)O)[C@H]2CC1,306.05,ethanol,CCO,0.03111,0.5424224626547456,-0.2656623338810226,Abietic acid,514-10-3,10569,No,10.1016/j.jct.2013.07.015
CC(C)C1=CC2=CC[C@@H]3[C@](C)(CCC[C@@]3(C)C(=O)O)[C@H]2CC1,308.22,ethanol,CCO,0.03347,0.5835701197529564,-0.233906953171023,Abietic acid,514-10-3,10569,No,10.1016/j.jct.2013.07.015
CC(C)C1=CC2=CC[C@@H]3[C@](C)(CCC[C@@]3(C)C(=O)O)[C@H]2CC1,310.35,ethanol,CCO,0.03604,0.6285444506666539,-0.20166400358404557,Abietic acid,514-10-3,10569,No,10.1016/j.jct.2013.07.015
CC(C)C1=CC2=CC[C@@H]3[C@](C)(CCC[C@@]3(C)C(=O)O)[C@H]2CC1,312.35,ethanol,CCO,0.03853,0.6721905347326925,-0.17250760722254135,Abietic acid,514-10-3,10569,No,10.1016/j.jct.2013.07.015
CC(C)C1=CC2=CC[C@@H]3[C@](C)(CCC[C@@]3(C)C(=O)O)[C@H]2CC1,315.23,ethanol,CCO,0.04102,0.7151522850984406,-0.1456014693376031,Abietic acid,514-10-3,10569,No,10.1016/j.jct.2013.07.015