SMILES_Solute,Temperature_K,Solvent,SMILES_Solvent,Solubility(mole_fraction),Solubility(mol/L),LogS(mol/L),Compound_Name,CAS,PubChem_CID,FDA_Approved,Source
CCCCCCCCCCCCCCCCCCCC(=O)OCCO,311.25,ethanol,CCO,0.0006,0.010082794345776485,-1.9964190908298327,Ethylene glycol monoeicosate,26158-80-5,538813,No,10.1007/bf00649573
CCCCCCCCCCCCCCCCCCCC(=O)OCCO,314.65,ethanol,CCO,0.0012,0.020100220226944722,-1.6967991842301131,Ethylene glycol monoeicosate,26158-80-5,538813,No,10.1007/bf00649573
CCCCCCCCCCCCCCCCCCCC(=O)OCCO,319.15,ethanol,CCO,0.002,0.033356167080529055,-1.4768238594555132,Ethylene glycol monoeicosate,26158-80-5,538813,No,10.1007/bf00649573
CCCCCCCCCCCCCCCCCCCC(=O)OCCO,322.15,ethanol,CCO,0.005,0.08335589658537022,-1.0790636728136727,Ethylene glycol monoeicosate,26158-80-5,538813,No,10.1007/bf00649573
CCCCCCCCCCCCCCCCCCCC(=O)OCCO,324.15,ethanol,CCO,0.0139,0.23328611254756024,-0.6321111138572452,Ethylene glycol monoeicosate,26158-80-5,538813,No,10.1007/bf00649573
CCCCCCCCCCCCCCCCCCCCCC(=O)OCCO,296.35,ethanol,CCO,0.0001,0.001707890530419892,-2.767539969453911,Ethylene glycol monobehenate,109376-47-8,18769590,No,10.1007/bf00649573
CCCCCCCCCCCCCCCCCCCCCC(=O)OCCO,302.05,ethanol,CCO,0.0002,0.003394494879685412,-2.4692248420863785,Ethylene glycol monobehenate,109376-47-8,18769590,No,10.1007/bf00649573
CCCCCCCCCCCCCCCCCCCCCC(=O)OCCO,305.35,ethanol,CCO,0.0003,0.005073467706986849,-2.294695099598497,Ethylene glycol monobehenate,109376-47-8,18769590,No,10.1007/bf00649573
CCCCCCCCCCCCCCCCCCCCCC(=O)OCCO,311.65,ethanol,CCO,0.0007,0.011759122464170544,-1.929625086694265,Ethylene glycol monobehenate,109376-47-8,18769590,No,10.1007/bf00649573
CCCCCCCCCCCCCCCCCCCCCC(=O)OCCO,313.05,ethanol,CCO,0.0009,0.015097977048641829,-1.8210812391616327,Ethylene glycol monobehenate,109376-47-8,18769590,No,10.1007/bf00649573
CCCCCCCCCCCCCCCCCCCCCC(=O)OCCO,322.45,ethanol,CCO,0.0131,0.22010937544874934,-0.6573614584964483,Ethylene glycol monobehenate,109376-47-8,18769590,No,10.1007/bf00649573
O=[N+]([O-])c1cccc2ccccc12,298.15,ethanol,CCO,0.02773,0.48625231742958236,-0.31313831585753354,1-nitronaphthalene,86-57-7,6849,No,10.1007/s10953-005-7691-2
CC(=O)Nc1ccc(O)cc1,293.15,ethanol,CCO,0.05045,0.9105717764091923,-0.04068581497633152,Paracetamol,103-90-2,1983,Yes,10.1007/s10953-005-9007-8
CC(=O)Nc1ccc(O)cc1,298.15,ethanol,CCO,0.0546,0.9846360783233495,-0.006724255167280568,Paracetamol,103-90-2,1983,Yes,10.1007/s10953-005-9007-8
CC(=O)Nc1ccc(O)cc1,303.15,ethanol,CCO,0.062,1.1204061618705714,0.04937548863691849,Paracetamol,103-90-2,1983,Yes,10.1007/s10953-005-9007-8
CC(=O)Nc1ccc(O)cc1,308.15,ethanol,CCO,0.067,1.2102355344377533,0.08286990035948257,Paracetamol,103-90-2,1983,Yes,10.1007/s10953-005-9007-8
CC(=O)Nc1ccc(O)cc1,313.15,ethanol,CCO,0.0705,1.2712822620035378,0.10424198739182373,Paracetamol,103-90-2,1983,Yes,10.1007/s10953-005-9007-8
O=[N+]([O-])N1CC([N+](=O)[O-])([N+](=O)[O-])C1,293.15,ethanol,CCO,0.0134946,0.23443983208275423,-0.629968598353204,"1,3,3-trinitroazetidine",97645-24-4,9794126,No,10.1007/s10953-011-9673-7
O=[N+]([O-])N1CC([N+](=O)[O-])([N+](=O)[O-])C1,298.15,ethanol,CCO,0.0153957,0.2665854312990809,-0.5741635881528437,"1,3,3-trinitroazetidine",97645-24-4,9794126,No,10.1007/s10953-011-9673-7
O=[N+]([O-])N1CC([N+](=O)[O-])([N+](=O)[O-])C1,303.15,ethanol,CCO,0.0168647,0.2907715875705873,-0.5364480323527364,"1,3,3-trinitroazetidine",97645-24-4,9794126,No,10.1007/s10953-011-9673-7
O=[N+]([O-])N1CC([N+](=O)[O-])([N+](=O)[O-])C1,313.15,ethanol,CCO,0.0252445,0.43408356534836384,-0.3624266564871015,"1,3,3-trinitroazetidine",97645-24-4,9794126,No,10.1007/s10953-011-9673-7
O=[N+]([O-])N1CC([N+](=O)[O-])([N+](=O)[O-])C1,323.15,ethanol,CCO,0.0393555,0.6786913437811469,-0.16832768988626398,"1,3,3-trinitroazetidine",97645-24-4,9794126,No,10.1007/s10953-011-9673-7
CN1C(C(=O)Nc2ccccn2)=C(O)c2sc(Cl)cc2S1(=O)=O,298.15,ethanol,CCO,1.3000000000000001e-05,0.00022163977380441538,-3.654352301733323,Lornoxicam,70374-39-9,54690031,Yes,10.1007/s10953-012-9876-6
CC(C)=CCOc1c2ccoc2cc2oc(=O)ccc12,288.2,ethanol,CCO,0.0026309,0.045454693817765957,-1.342421263291304,Isoimperatorin,482-45-1,68081,No,10.1007/s10953-012-9917-1
CC(C)=CCOc1c2ccoc2cc2oc(=O)ccc12,293.2,ethanol,CCO,0.0037742,0.06492329723024991,-1.1875994319674923,Isoimperatorin,482-45-1,68081,No,10.1007/s10953-012-9917-1
CC(C)=CCOc1c2ccoc2cc2oc(=O)ccc12,298.2,ethanol,CCO,0.005313399999999999,0.09103523605934223,-1.0407904773030656,Isoimperatorin,482-45-1,68081,No,10.1007/s10953-012-9917-1
CC(C)=CCOc1c2ccoc2cc2oc(=O)ccc12,303.2,ethanol,CCO,0.00733,0.12514074674355072,-0.9026012578159383,Isoimperatorin,482-45-1,68081,No,10.1007/s10953-012-9917-1
CC(C)=CCOc1c2ccoc2cc2oc(=O)ccc12,308.2,ethanol,CCO,0.009987399999999999,0.17000988414443705,-0.7695258285946608,Isoimperatorin,482-45-1,68081,No,10.1007/s10953-012-9917-1
CC(C)=CCOc1c2ccoc2cc2oc(=O)ccc12,313.2,ethanol,CCO,0.0133788,0.22723655577401194,-0.6435218019492455,Isoimperatorin,482-45-1,68081,No,10.1007/s10953-012-9917-1
CC(C)=CCOc1c2ccoc2cc2oc(=O)ccc12,318.2,ethanol,CCO,0.0177582,0.3012500517013036,-0.5210728698823401,Isoimperatorin,482-45-1,68081,No,10.1007/s10953-012-9917-1
CC(C)=CCOc1c2ccoc2cc2oc(=O)ccc12,323.2,ethanol,CCO,0.023003199999999998,0.3900881550016955,-0.4088372368081853,Isoimperatorin,482-45-1,68081,No,10.1007/s10953-012-9917-1
CC(C)=CCOc1c2ccoc2cc2oc(=O)ccc12,328.2,ethanol,CCO,0.0300498,0.5103482345990175,-0.29213338320563326,Isoimperatorin,482-45-1,68081,No,10.1007/s10953-012-9917-1
O=C(O)CCC(=O)O,278.15,ethanol,CCO,0.0354,0.6393878097913267,-0.19423564799993812,Succinic acid,110-15-6,1110,No,10.1007/s10953-012-9951-z
O=C(O)CCC(=O)O,283.15,ethanol,CCO,0.0401,0.7232604894458318,-0.14070525906206238,Succinic acid,110-15-6,1110,No,10.1007/s10953-012-9951-z
O=C(O)CCC(=O)O,288.15,ethanol,CCO,0.0422,0.7586933670689732,-0.11993371276990655,Succinic acid,110-15-6,1110,No,10.1007/s10953-012-9951-z
O=C(O)CCC(=O)O,293.15,ethanol,CCO,0.0438,0.7850480220304119,-0.10510377629306024,Succinic acid,110-15-6,1110,No,10.1007/s10953-012-9951-z
O=C(O)CCC(=O)O,298.15,ethanol,CCO,0.0525,0.9446670879306827,-0.024721215139275766,Succinic acid,110-15-6,1110,No,10.1007/s10953-012-9951-z
O=C(O)CCC(=O)O,303.15,ethanol,CCO,0.0633,1.1454861098422038,0.05898982730502518,Succinic acid,110-15-6,1110,No,10.1007/s10953-012-9951-z
O=C(O)CCC(=O)O,308.15,ethanol,CCO,0.0753,1.3723688755590107,0.13747085997707278,Succinic acid,110-15-6,1110,No,10.1007/s10953-012-9951-z
O=C(O)CCC(=O)O,313.15,ethanol,CCO,0.096,1.7799387874709673,0.25040506707254756,Succinic acid,110-15-6,1110,No,10.1007/s10953-012-9951-z
O=C(O)CCC(=O)O,318.15,ethanol,CCO,0.1159,2.1844218618689255,0.33933651433920964,Succinic acid,110-15-6,1110,No,10.1007/s10953-012-9951-z
O=C(O)CCC(=O)O,323.15,ethanol,CCO,0.1372,2.6343504637824657,0.420673551325095,Succinic acid,110-15-6,1110,No,10.1007/s10953-012-9951-z
O=C(O)CCC(=O)O,328.15,ethanol,CCO,0.1638,3.225579774530876,0.5086077872656063,Succinic acid,110-15-6,1110,No,10.1007/s10953-012-9951-z
O=C(O)CCC(=O)O,333.15,ethanol,CCO,0.1967,4.009770231991736,0.6031194873740349,Succinic acid,110-15-6,1110,No,10.1007/s10953-012-9951-z
CC(=O)C1=C(O)C=C2Oc3c(C(C)=O)c(O)c(C)c(O)c3[C@]2(C)C1=O,288.15,ethanol,CCO,3.09e-05,0.0005321089555705345,-3.2739994316933276,(+)-usnic acid,7562-61-0,442614,No,10.1007/s10953-013-0010-1
CC(=O)C1=C(O)C=C2Oc3c(C(C)=O)c(O)c(C)c(O)c3[C@]2(C)C1=O,293.15,ethanol,CCO,4.23e-05,0.0007249859513703503,-3.139670409017212,(+)-usnic acid,7562-61-0,442614,No,10.1007/s10953-013-0010-1
CC(=O)C1=C(O)C=C2Oc3c(C(C)=O)c(O)c(C)c(O)c3[C@]2(C)C1=O,298.15,ethanol,CCO,5.3e-05,0.0009036444548353264,-3.0440024120868046,(+)-usnic acid,7562-61-0,442614,No,10.1007/s10953-013-0010-1
CC(=O)C1=C(O)C=C2Oc3c(C(C)=O)c(O)c(C)c(O)c3[C@]2(C)C1=O,303.15,ethanol,CCO,6.8e-05,0.0011527233308115357,-2.938274916747131,(+)-usnic acid,7562-61-0,442614,No,10.1007/s10953-013-0010-1
CC(=O)C1=C(O)C=C2Oc3c(C(C)=O)c(O)c(C)c(O)c3[C@]2(C)C1=O,308.15,ethanol,CCO,9.300000000000001e-05,0.0015674730449577996,-2.8047999187758688,(+)-usnic acid,7562-61-0,442614,No,10.1007/s10953-013-0010-1
CC(=O)C1=C(O)C=C2Oc3c(C(C)=O)c(O)c(C)c(O)c3[C@]2(C)C1=O,313.15,ethanol,CCO,0.00011399999999999999,0.001910982140314079,-2.718743371761988,(+)-usnic acid,7562-61-0,442614,No,10.1007/s10953-013-0010-1
CC(=O)C1=C(O)C=C2Oc3c(C(C)=O)c(O)c(C)c(O)c3[C@]2(C)C1=O,318.15,ethanol,CCO,0.000121,0.0020164729107155217,-2.695407607926529,(+)-usnic acid,7562-61-0,442614,No,10.1007/s10953-013-0010-1
CC(=O)C1=C(O)C=C2Oc3c(C(C)=O)c(O)c(C)c(O)c3[C@]2(C)C1=O,323.15,ethanol,CCO,0.000148,0.0024521982158783972,-2.610444427879989,(+)-usnic acid,7562-61-0,442614,No,10.1007/s10953-013-0010-1
CC(=O)C1=C(O)C=C2Oc3c(C(C)=O)c(O)c(C)c(O)c3[C@]2(C)C1=O,328.15,ethanol,CCO,0.00020299999999999997,0.003343399411636923,-2.475811738301726,(+)-usnic acid,7562-61-0,442614,No,10.1007/s10953-013-0010-1
CC(=O)C1=C(O)C=C2Oc3c(C(C)=O)c(O)c(C)c(O)c3[C@]2(C)C1=O,333.15,ethanol,CCO,0.000234,0.003832749084953377,-2.4164896113710195,(+)-usnic acid,7562-61-0,442614,No,10.1007/s10953-013-0010-1
CC(=O)C1=C(O)C=C2Oc3c(C(C)=O)c(O)c(C)c(O)c3[C@]2(C)C1=O,338.15,ethanol,CCO,0.00027400000000000005,0.004463130872200772,-2.3503603781737423,(+)-usnic acid,7562-61-0,442614,No,10.1007/s10953-013-0010-1
CC(=O)NCC(=O)O,278.15,ethanol,CCO,0.002225,0.038851316947085456,-1.4105942552888466,N-acetylglycine,543-24-8,10972,No,10.1007/s10953-013-0074-y
CC(=O)NCC(=O)O,282.15,ethanol,CCO,0.002684,0.04668341914469947,-1.3308373432587142,N-acetylglycine,543-24-8,10972,No,10.1007/s10953-013-0074-y
CC(=O)NCC(=O)O,286.15,ethanol,CCO,0.0031709999999999998,0.05493951046200725,-1.2601152146751244,N-acetylglycine,543-24-8,10972,No,10.1007/s10953-013-0074-y
CC(=O)NCC(=O)O,290.15,ethanol,CCO,0.0036580000000000002,0.06312950215325899,-1.1997676355569324,N-acetylglycine,543-24-8,10972,No,10.1007/s10953-013-0074-y
CC(=O)NCC(=O)O,293.15,ethanol,CCO,0.004075,0.07012483160114522,-1.1541281686560132,N-acetylglycine,543-24-8,10972,No,10.1007/s10953-013-0074-y
CC(=O)NCC(=O)O,297.15,ethanol,CCO,0.0047810000000000005,0.0819654087076909,-1.0863693912371546,N-acetylglycine,543-24-8,10972,No,10.1007/s10953-013-0074-y
CC(=O)NCC(=O)O,302.15,ethanol,CCO,0.005646,0.09634065515051099,-1.0161904046555448,N-acetylglycine,543-24-8,10972,No,10.1007/s10953-013-0074-y
CC(=O)NCC(=O)O,307.15,ethanol,CCO,0.006785,0.11526089366673346,-0.9383180174717685,N-acetylglycine,543-24-8,10972,No,10.1007/s10953-013-0074-y
CC(=O)NCC(=O)O,311.15,ethanol,CCO,0.007641,0.1293300476930415,-0.8883005622716446,N-acetylglycine,543-24-8,10972,No,10.1007/s10953-013-0074-y
CC(=O)NCC(=O)O,315.15,ethanol,CCO,0.009003,0.15190313955433798,-0.818433249988207,N-acetylglycine,543-24-8,10972,No,10.1007/s10953-013-0074-y
CC(=O)NCC(=O)O,319.15,ethanol,CCO,0.010426,0.1753662966011803,-0.7560538693883934,N-acetylglycine,543-24-8,10972,No,10.1007/s10953-013-0074-y
COc1ccc(-c2oc3c(CC=C(C)C)c(O[C@@H]4O[C@H](CO)[C@@H](O)[C@H](O)[C@H]4O)cc(O)c3c(=O)c2O[C@@H]2O[C@@H](C)[C@H](O)[C@@H](O)[C@H]2O)cc1,288.2,ethanol,CCO,2.2e-05,0.0003791076430416113,-3.421237459843318,Icariin,489-32-7,5318997,No,10.1007/s10953-013-0076-9
COc1ccc(-c2oc3c(CC=C(C)C)c(O[C@@H]4O[C@H](CO)[C@@H](O)[C@H](O)[C@H]4O)cc(O)c3c(=O)c2O[C@@H]2O[C@@H](C)[C@H](O)[C@@H](O)[C@H]2O)cc1,293.2,ethanol,CCO,2.6000000000000002e-05,0.00044557219554104753,-3.3510819176993363,Icariin,489-32-7,5318997,No,10.1007/s10953-013-0076-9
COc1ccc(-c2oc3c(CC=C(C)C)c(O[C@@H]4O[C@H](CO)[C@@H](O)[C@H](O)[C@H]4O)cc(O)c3c(=O)c2O[C@@H]2O[C@@H](C)[C@H](O)[C@@H](O)[C@H]2O)cc1,298.2,ethanol,CCO,2.9999999999999997e-05,0.0005112785376413206,-3.2913424376266365,Icariin,489-32-7,5318997,No,10.1007/s10953-013-0076-9
COc1ccc(-c2oc3c(CC=C(C)C)c(O[C@@H]4O[C@H](CO)[C@@H](O)[C@H](O)[C@H]4O)cc(O)c3c(=O)c2O[C@@H]2O[C@@H](C)[C@H](O)[C@@H](O)[C@H]2O)cc1,303.2,ethanol,CCO,3.3e-05,0.0005592782579979813,-3.252372063587964,Icariin,489-32-7,5318997,No,10.1007/s10953-013-0076-9
COc1ccc(-c2oc3c(CC=C(C)C)c(O[C@@H]4O[C@H](CO)[C@@H](O)[C@H](O)[C@H]4O)cc(O)c3c(=O)c2O[C@@H]2O[C@@H](C)[C@H](O)[C@@H](O)[C@H]2O)cc1,308.2,ethanol,CCO,3.5e-05,0.0005898555829636719,-3.2292543056448,Icariin,489-32-7,5318997,No,10.1007/s10953-013-0076-9
COc1ccc(-c2oc3c(CC=C(C)C)c(O[C@@H]4O[C@H](CO)[C@@H](O)[C@H](O)[C@H]4O)cc(O)c3c(=O)c2O[C@@H]2O[C@@H](C)[C@H](O)[C@@H](O)[C@H]2O)cc1,313.2,ethanol,CCO,5.7999999999999994e-05,0.000971996414795116,-3.0123353369642287,Icariin,489-32-7,5318997,No,10.1007/s10953-013-0076-9
COc1ccc(-c2oc3c(CC=C(C)C)c(O[C@@H]4O[C@H](CO)[C@@H](O)[C@H](O)[C@H]4O)cc(O)c3c(=O)c2O[C@@H]2O[C@@H](C)[C@H](O)[C@@H](O)[C@H]2O)cc1,318.2,ethanol,CCO,7.4e-05,0.0012331345268620974,-2.908989542149679,Icariin,489-32-7,5318997,No,10.1007/s10953-013-0076-9
COc1ccc(-c2oc3c(CC=C(C)C)c(O[C@@H]4O[C@H](CO)[C@@H](O)[C@H](O)[C@H]4O)cc(O)c3c(=O)c2O[C@@H]2O[C@@H](C)[C@H](O)[C@@H](O)[C@H]2O)cc1,323.2,ethanol,CCO,0.00010400000000000001,0.0017232415489738051,-2.763653842671607,Icariin,489-32-7,5318997,No,10.1007/s10953-013-0076-9
COc1ccc(-c2oc3c(CC=C(C)C)c(O[C@@H]4O[C@H](CO)[C@@H](O)[C@H](O)[C@H]4O)cc(O)c3c(=O)c2O[C@@H]2O[C@@H](C)[C@H](O)[C@@H](O)[C@H]2O)cc1,328.2,ethanol,CCO,0.000122,0.0020099594031853323,-2.69681271429625,Icariin,489-32-7,5318997,No,10.1007/s10953-013-0076-9
COc1ccc2nc(SCc3ncc(C)c(OC)c3C)[nH]c2c1,280.35,ethanol,CCO,0.0144,0.25393858190323415,-0.5952713100175127,Omeprazole sulfide,73590-85-9,155794,No,10.1007/s10953-013-0110-y
COc1ccc2nc(SCc3ncc(C)c(OC)c3C)[nH]c2c1,284.35,ethanol,CCO,0.0189,0.3333615023362568,-0.47708455534272676,Omeprazole sulfide,73590-85-9,155794,No,10.1007/s10953-013-0110-y
COc1ccc2nc(SCc3ncc(C)c(OC)c3C)[nH]c2c1,288.15,ethanol,CCO,0.0248,0.43791180939116703,-0.3586133428091008,Omeprazole sulfide,73590-85-9,155794,No,10.1007/s10953-013-0110-y
COc1ccc2nc(SCc3ncc(C)c(OC)c3C)[nH]c2c1,292.25,ethanol,CCO,0.0323,0.5726003995177293,-0.2421483532961094,Omeprazole sulfide,73590-85-9,155794,No,10.1007/s10953-013-0110-y
COc1ccc2nc(SCc3ncc(C)c(OC)c3C)[nH]c2c1,296.65,ethanol,CCO,0.0412,0.7335691376283245,-0.13455894838446797,Omeprazole sulfide,73590-85-9,155794,No,10.1007/s10953-013-0110-y
COc1ccc2nc(SCc3ncc(C)c(OC)c3C)[nH]c2c1,300.25,ethanol,CCO,0.0511,0.9156546087690057,-0.03826831431573382,Omeprazole sulfide,73590-85-9,155794,No,10.1007/s10953-013-0110-y
COc1ccc2nc(SCc3ncc(C)c(OC)c3C)[nH]c2c1,303.15,ethanol,CCO,0.0606,1.0934746162268387,0.03880870583678523,Omeprazole sulfide,73590-85-9,155794,No,10.1007/s10953-013-0110-y
COc1ccc2nc(SCc3ncc(C)c(OC)c3C)[nH]c2c1,307.65,ethanol,CCO,0.0775,1.416662967336944,0.15126654125964936,Omeprazole sulfide,73590-85-9,155794,No,10.1007/s10953-013-0110-y
COc1ccc2nc(SCc3ncc(C)c(OC)c3C)[nH]c2c1,311.15,ethanol,CCO,0.0946,1.7549659597634357,0.24426869708088805,Omeprazole sulfide,73590-85-9,155794,No,10.1007/s10953-013-0110-y
COc1ccc2nc(SCc3ncc(C)c(OC)c3C)[nH]c2c1,315.15,ethanol,CCO,0.1151,2.1748683247754412,0.3374329681621396,Omeprazole sulfide,73590-85-9,155794,No,10.1007/s10953-013-0110-y
COc1ccc2nc(SCc3ncc(C)c(OC)c3C)[nH]c2c1,319.65,ethanol,CCO,0.1415,2.7418601495878128,0.43804529953765675,Omeprazole sulfide,73590-85-9,155794,No,10.1007/s10953-013-0110-y
O=C(O)[C@H](O)[C@@H](O)C(=O)O,281.15,ethanol,CCO,0.032078,0.5755121328041922,-0.2399455162490144,L-tartaric acid,87-69-4,444305,No,10.1007/s10953-013-9960-6
O=C(O)[C@H](O)[C@@H](O)C(=O)O,285.15,ethanol,CCO,0.038139,0.6855559541418136,-0.16395709290464738,L-tartaric acid,87-69-4,444305,No,10.1007/s10953-013-9960-6
O=C(O)[C@H](O)[C@@H](O)C(=O)O,289.15,ethanol,CCO,0.045882,0.8277823633052714,-0.08208383089587219,L-tartaric acid,87-69-4,444305,No,10.1007/s10953-013-9960-6
O=C(O)[C@H](O)[C@@H](O)C(=O)O,293.15,ethanol,CCO,0.053068,0.9604721576430741,-0.017515220034181215,L-tartaric acid,87-69-4,444305,No,10.1007/s10953-013-9960-6
O=C(O)[C@H](O)[C@@H](O)C(=O)O,297.15,ethanol,CCO,0.061382000000000006,1.1157905531316339,0.047582680124923483,L-tartaric acid,87-69-4,444305,No,10.1007/s10953-013-9960-6
O=C(O)[C@H](O)[C@@H](O)C(=O)O,301.15,ethanol,CCO,0.071224,1.3025978547984551,0.11481035861469453,L-tartaric acid,87-69-4,444305,No,10.1007/s10953-013-9960-6
Clc1ccc(OCCCBr)cc1,273.15,ethanol,CCO,0.021857,0.3914301230371875,-0.4073457556697553,1-(3-bromopropoxy)-4-chlorobenzene,27983-04-6,223534,No,10.1007/s10953-013-9962-4
Clc1ccc(OCCCBr)cc1,278.15,ethanol,CCO,0.028054000000000003,0.5028761091073705,-0.29853899657095884,1-(3-bromopropoxy)-4-chlorobenzene,27983-04-6,223534,No,10.1007/s10953-013-9962-4
Clc1ccc(OCCCBr)cc1,283.15,ethanol,CCO,0.036621,0.6581265086383714,-0.18169061592617397,1-(3-bromopropoxy)-4-chlorobenzene,27983-04-6,223534,No,10.1007/s10953-013-9962-4
Clc1ccc(OCCCBr)cc1,288.15,ethanol,CCO,0.048813,0.8836865861035246,-0.053701737317755696,1-(3-bromopropoxy)-4-chlorobenzene,27983-04-6,223534,No,10.1007/s10953-013-9962-4
Clc1ccc(OCCCBr)cc1,293.15,ethanol,CCO,0.065783,1.20680405846893,0.08163676203302828,1-(3-bromopropoxy)-4-chlorobenzene,27983-04-6,223534,No,10.1007/s10953-013-9962-4
Clc1ccc(OCCCBr)cc1,298.15,ethanol,CCO,0.093282,1.7539786863599127,0.24402431169107136,1-(3-bromopropoxy)-4-chlorobenzene,27983-04-6,223534,No,10.1007/s10953-013-9962-4
Clc1ccc(OCCCBr)cc1,303.15,ethanol,CCO,0.14194,2.8039727028210404,0.44777378138024915,1-(3-bromopropoxy)-4-chlorobenzene,27983-04-6,223534,No,10.1007/s10953-013-9962-4
COc1cc2c(cc1OC)C(=O)C(CC1CCN(Cc3ccccc3)CC1)C2.Cl,278.15,ethanol,CCO,0.00029099999999999997,0.005071398462418431,-2.2948722653679074,Donepezil hydrochloride,120011-70-3,5741,Yes,10.1007/s10953-013-9986-9
COc1cc2c(cc1OC)C(=O)C(CC1CCN(Cc3ccccc3)CC1)C2.Cl,283.15,ethanol,CCO,0.000379,0.0065641757255281916,-2.182819801231726,Donepezil hydrochloride,120011-70-3,5741,Yes,10.1007/s10953-013-9986-9
COc1cc2c(cc1OC)C(=O)C(CC1CCN(Cc3ccccc3)CC1)C2.Cl,288.15,ethanol,CCO,0.000484,0.008338429861135078,-2.0789157199668744,Donepezil hydrochloride,120011-70-3,5741,Yes,10.1007/s10953-013-9986-9
COc1cc2c(cc1OC)C(=O)C(CC1CCN(Cc3ccccc3)CC1)C2.Cl,293.15,ethanol,CCO,0.000609,0.01044365967429592,-1.9811472888965365,Donepezil hydrochloride,120011-70-3,5741,Yes,10.1007/s10953-013-9986-9
COc1cc2c(cc1OC)C(=O)C(CC1CCN(Cc3ccccc3)CC1)C2.Cl,298.15,ethanol,CCO,0.000768,0.013103689281852259,-1.8826064135672407,Donepezil hydrochloride,120011-70-3,5741,Yes,10.1007/s10953-013-9986-9
COc1cc2c(cc1OC)C(=O)C(CC1CCN(Cc3ccccc3)CC1)C2.Cl,303.15,ethanol,CCO,0.0009509999999999999,0.016135423365405997,-1.792219634979786,Donepezil hydrochloride,120011-70-3,5741,Yes,10.1007/s10953-013-9986-9
COc1cc2c(cc1OC)C(=O)C(CC1CCN(Cc3ccccc3)CC1)C2.Cl,308.15,ethanol,CCO,0.001176,0.01984244083384416,-1.7024049059989328,Donepezil hydrochloride,120011-70-3,5741,Yes,10.1007/s10953-013-9986-9
COc1cc2c(cc1OC)C(=O)C(CC1CCN(Cc3ccccc3)CC1)C2.Cl,313.15,ethanol,CCO,0.001446,0.024271633281323222,-1.6149009982375064,Donepezil hydrochloride,120011-70-3,5741,Yes,10.1007/s10953-013-9986-9
COc1cc2c(cc1OC)C(=O)C(CC1CCN(Cc3ccccc3)CC1)C2.Cl,318.15,ethanol,CCO,0.001767,0.029495726363448715,-1.5302409044023302,Donepezil hydrochloride,120011-70-3,5741,Yes,10.1007/s10953-013-9986-9
COc1cc2c(cc1OC)C(=O)C(CC1CCN(Cc3ccccc3)CC1)C2.Cl,323.15,ethanol,CCO,0.002146,0.035628069550120045,-1.448207708562352,Donepezil hydrochloride,120011-70-3,5741,Yes,10.1007/s10953-013-9986-9
COc1cc2c(cc1OC)C(=O)C(CC1CCN(Cc3ccccc3)CC1)C2.Cl,328.15,ethanol,CCO,0.002593,0.04280890881650032,-1.3684658420328317,Donepezil hydrochloride,120011-70-3,5741,Yes,10.1007/s10953-013-9986-9
COc1cc2c(cc1OC)C(=O)C(CC1CCN(Cc3ccccc3)CC1)C2.Cl,333.15,ethanol,CCO,0.003081,0.05060864615743311,-1.2957752804390983,Donepezil hydrochloride,120011-70-3,5741,Yes,10.1007/s10953-013-9986-9
COC1=C(OC)C(=O)C(C/C=C(\C)CC/C=C(\C)CC/C=C(\C)CC/C=C(\C)CC/C=C(\C)CC/C=C(\C)CC/C=C(\C)CC/C=C(\C)CC/C=C(\C)CCC=C(C)C)=C(C)C1=O,270.15,ethanol,CCO,1e-05,0.00017574334343884476,-3.755121115597051,Coenzyme Q10,303-98-0,5281915,No,10.1007/s10953-013-9998-5
COC1=C(OC)C(=O)C(C/C=C(\C)CC/C=C(\C)CC/C=C(\C)CC/C=C(\C)CC/C=C(\C)CC/C=C(\C)CC/C=C(\C)CC/C=C(\C)CC/C=C(\C)CCC=C(C)C)=C(C)C1=O,280.15,ethanol,CCO,1.1000000000000001e-05,0.00019123136988552478,-3.7184408638868622,Coenzyme Q10,303-98-0,5281915,No,10.1007/s10953-013-9998-5