SMILES_Solute,Temperature_K,Solvent,SMILES_Solvent,Solubility(mole_fraction),Solubility(mol/L),LogS(mol/L),Compound_Name,CAS,PubChem_CID,FDA_Approved,Source
O=C1c2ccccc2-c2ccccc21,308.15,ethanol,CCO,0.042800000000000005,0.7535599705512682,-0.12288217952307151,9-fluorenone,486-25-9,10241,No,10.1016/j.cjche.2023.02.024
O=C1c2ccccc2-c2ccccc21,313.15,ethanol,CCO,0.0506,0.8933127939577187,-0.04899644603419966,9-fluorenone,486-25-9,10241,No,10.1016/j.cjche.2023.02.024
O=C1c2ccccc2-c2ccccc21,318.15,ethanol,CCO,0.0693,1.2407320179540275,0.09367798964414975,9-fluorenone,486-25-9,10241,No,10.1016/j.cjche.2023.02.024
CCC(C)(C)C(=O)O[C@H]1C[C@@H](C)C=C2C=C[C@H](C)[C@H](CC[C@@H]3C[C@@H](O)CC(=O)O3)[C@H]21,279.1,ethanol,CCO,0.01218,0.21459935294436197,-0.6683715918440506,Simvastatin,79902-63-9,54454,Yes,10.1016/j.fluid.2009.03.006
CCC(C)(C)C(=O)O[C@H]1C[C@@H](C)C=C2C=C[C@H](C)[C@H](CC[C@@H]3C[C@@H](O)CC(=O)O3)[C@H]21,282.2,ethanol,CCO,0.01293,0.22721644409189556,-0.6435602410950899,Simvastatin,79902-63-9,54454,Yes,10.1016/j.fluid.2009.03.006
CCC(C)(C)C(=O)O[C@H]1C[C@@H](C)C=C2C=C[C@H](C)[C@H](CC[C@@H]3C[C@@H](O)CC(=O)O3)[C@H]21,285.3,ethanol,CCO,0.013869999999999999,0.24314018210468083,-0.6141432623649637,Simvastatin,79902-63-9,54454,Yes,10.1016/j.fluid.2009.03.006
CCC(C)(C)C(=O)O[C@H]1C[C@@H](C)C=C2C=C[C@H](C)[C@H](CC[C@@H]3C[C@@H](O)CC(=O)O3)[C@H]21,288.5,ethanol,CCO,0.01495,0.26143864427574715,-0.5826302172326258,Simvastatin,79902-63-9,54454,Yes,10.1016/j.fluid.2009.03.006
CCC(C)(C)C(=O)O[C@H]1C[C@@H](C)C=C2C=C[C@H](C)[C@H](CC[C@@H]3C[C@@H](O)CC(=O)O3)[C@H]21,291.3,ethanol,CCO,0.01623,0.2833157734668189,-0.5477292456740491,Simvastatin,79902-63-9,54454,Yes,10.1016/j.fluid.2009.03.006
CCC(C)(C)C(=O)O[C@H]1C[C@@H](C)C=C2C=C[C@H](C)[C@H](CC[C@@H]3C[C@@H](O)CC(=O)O3)[C@H]21,296.1,ethanol,CCO,0.01848,0.32161773605402294,-0.49266000949447625,Simvastatin,79902-63-9,54454,Yes,10.1016/j.fluid.2009.03.006
CCC(C)(C)C(=O)O[C@H]1C[C@@H](C)C=C2C=C[C@H](C)[C@H](CC[C@@H]3C[C@@H](O)CC(=O)O3)[C@H]21,301.0,ethanol,CCO,0.02056,0.3566259940992093,-0.4477870047321351,Simvastatin,79902-63-9,54454,Yes,10.1016/j.fluid.2009.03.006
CCC(C)(C)C(=O)O[C@H]1C[C@@H](C)C=C2C=C[C@H](C)[C@H](CC[C@@H]3C[C@@H](O)CC(=O)O3)[C@H]21,305.8,ethanol,CCO,0.023059999999999997,0.39886454248915953,-0.39917456906929183,Simvastatin,79902-63-9,54454,Yes,10.1016/j.fluid.2009.03.006
CCC(C)(C)C(=O)O[C@H]1C[C@@H](C)C=C2C=C[C@H](C)[C@H](CC[C@@H]3C[C@@H](O)CC(=O)O3)[C@H]21,310.7,ethanol,CCO,0.0259,0.44682237671133457,-0.34986508569315067,Simvastatin,79902-63-9,54454,Yes,10.1016/j.fluid.2009.03.006
CCC(C)(C)C(=O)O[C@H]1C[C@@H](C)C=C2C=C[C@H](C)[C@H](CC[C@@H]3C[C@@H](O)CC(=O)O3)[C@H]21,315.5,ethanol,CCO,0.02923,0.5032593362710678,-0.2982081595026054,Simvastatin,79902-63-9,54454,Yes,10.1016/j.fluid.2009.03.006
CC(=O)OCC(=O)[C@@]12N=C(C)O[C@@H]1C[C@H]1[C@@H]3CCC4=CC(=O)C=C[C@]4(C)[C@H]3[C@@H](O)C[C@@]12C,293.15,ethanol,CCO,0.001669,0.028651847587794946,-1.5428473677170902,Deflazacort,14484-47-0,189821,Yes,10.1016/j.fluid.2011.03.032
CC(=O)OCC(=O)[C@@]12N=C(C)O[C@@H]1C[C@H]1[C@@H]3CCC4=CC(=O)C=C[C@]4(C)[C@H]3[C@@H](O)C[C@@]12C,298.15,ethanol,CCO,0.002003,0.03421766842463715,-1.4657495864025207,Deflazacort,14484-47-0,189821,Yes,10.1016/j.fluid.2011.03.032
CC(=O)OCC(=O)[C@@]12N=C(C)O[C@@H]1C[C@H]1[C@@H]3CCC4=CC(=O)C=C[C@]4(C)[C@H]3[C@@H](O)C[C@@]12C,303.15,ethanol,CCO,0.002362,0.04013225358246687,-1.3965064522534543,Deflazacort,14484-47-0,189821,Yes,10.1016/j.fluid.2011.03.032
CC(=O)OCC(=O)[C@@]12N=C(C)O[C@@H]1C[C@H]1[C@@H]3CCC4=CC(=O)C=C[C@]4(C)[C@H]3[C@@H](O)C[C@@]12C,308.15,ethanol,CCO,0.0027860000000000003,0.047083581030098534,-1.3271305134907274,Deflazacort,14484-47-0,189821,Yes,10.1016/j.fluid.2011.03.032
CC(=O)OCC(=O)[C@@]12N=C(C)O[C@@H]1C[C@H]1[C@@H]3CCC4=CC(=O)C=C[C@]4(C)[C@H]3[C@@H](O)C[C@@]12C,313.15,ethanol,CCO,0.0033450000000000003,0.056254016567268646,-1.2498464632481574,Deflazacort,14484-47-0,189821,Yes,10.1016/j.fluid.2011.03.032
CC(=O)OCC(=O)[C@@]12N=C(C)O[C@@H]1C[C@H]1[C@@H]3CCC4=CC(=O)C=C[C@]4(C)[C@H]3[C@@H](O)C[C@@]12C,318.15,ethanol,CCO,0.003972,0.06644956793411103,-1.1775078385653643,Deflazacort,14484-47-0,189821,Yes,10.1016/j.fluid.2011.03.032
CC(=O)OCC(=O)[C@@]12N=C(C)O[C@@H]1C[C@H]1[C@@H]3CCC4=CC(=O)C=C[C@]4(C)[C@H]3[C@@H](O)C[C@@]12C,323.15,ethanol,CCO,0.004767,0.0793505534804402,-1.1004500396380215,Deflazacort,14484-47-0,189821,Yes,10.1016/j.fluid.2011.03.032
CC(=O)OCC(=O)[C@@]12N=C(C)O[C@@H]1C[C@H]1[C@@H]3CCC4=CC(=O)C=C[C@]4(C)[C@H]3[C@@H](O)C[C@@]12C,328.15,ethanol,CCO,0.005657,0.09368153778290456,-1.0283459889311204,Deflazacort,14484-47-0,189821,Yes,10.1016/j.fluid.2011.03.032
CC(=O)OCC(=O)[C@@]12N=C(C)O[C@@H]1C[C@H]1[C@@H]3CCC4=CC(=O)C=C[C@]4(C)[C@H]3[C@@H](O)C[C@@]12C,333.15,ethanol,CCO,0.006626,0.10922738518745224,-0.9616684628698144,Deflazacort,14484-47-0,189821,Yes,10.1016/j.fluid.2011.03.032
CC(=O)OCC(=O)[C@@]12N=C(C)O[C@@H]1C[C@H]1[C@@H]3CCC4=CC(=O)C=C[C@]4(C)[C@H]3[C@@H](O)C[C@@]12C,338.15,ethanol,CCO,0.007954,0.13056411289526304,-0.8841761776804143,Deflazacort,14484-47-0,189821,Yes,10.1016/j.fluid.2011.03.032
CC(=O)OCC(=O)[C@@]12N=C(C)O[C@@H]1C[C@H]1[C@@H]3CCC4=CC(=O)C=C[C@]4(C)[C@H]3[C@@H](O)C[C@@]12C,343.15,ethanol,CCO,0.009573,0.15648002612032122,-0.8055410900621587,Deflazacort,14484-47-0,189821,Yes,10.1016/j.fluid.2011.03.032
C=C(CC(=O)O)C(=O)O,283.15,ethanol,CCO,0.0692,1.2871408680779393,0.10962607983449559,Itaconic acid,97-65-4,811,No,10.1016/j.fluid.2011.09.027
C=C(CC(=O)O)C(=O)O,288.15,ethanol,CCO,0.0725,1.3460238565157066,0.12905275725891854,Itaconic acid,97-65-4,811,No,10.1016/j.fluid.2011.09.027
C=C(CC(=O)O)C(=O)O,293.15,ethanol,CCO,0.0754,1.397617433661976,0.14538830933032207,Itaconic acid,97-65-4,811,No,10.1016/j.fluid.2011.09.027
C=C(CC(=O)O)C(=O)O,298.15,ethanol,CCO,0.0782,1.4463345121176991,0.16026874936622393,Itaconic acid,97-65-4,811,No,10.1016/j.fluid.2011.09.027
C=C(CC(=O)O)C(=O)O,303.15,ethanol,CCO,0.0823,1.520147539964695,0.18188574102565777,Itaconic acid,97-65-4,811,No,10.1016/j.fluid.2011.09.027
C=C(CC(=O)O)C(=O)O,308.15,ethanol,CCO,0.0865,1.5958214459562887,0.20298429718141375,Itaconic acid,97-65-4,811,No,10.1016/j.fluid.2011.09.027
C=C(CC(=O)O)C(=O)O,313.15,ethanol,CCO,0.091,1.6779529291862814,0.2247797736074686,Itaconic acid,97-65-4,811,No,10.1016/j.fluid.2011.09.027
C=C(CC(=O)O)C(=O)O,318.15,ethanol,CCO,0.0954,1.7573014211008127,0.2448462602393965,Itaconic acid,97-65-4,811,No,10.1016/j.fluid.2011.09.027
C=C(CC(=O)O)C(=O)O,323.15,ethanol,CCO,0.1007,1.8550450181794882,0.2683544535250279,Itaconic acid,97-65-4,811,No,10.1016/j.fluid.2011.09.027
C=C(CC(=O)O)C(=O)O,328.15,ethanol,CCO,0.106,1.9524161865362644,0.29057239952445524,Itaconic acid,97-65-4,811,No,10.1016/j.fluid.2011.09.027
O=C(O)CC(=O)O,303.2,ethanol,CCO,0.105,1.9882268220966333,0.29846592833379293,Malonic acid,141-82-2,867,No,10.1016/j.fluid.2011.09.033
O=C(O)CC(=O)O,308.2,ethanol,CCO,0.116,2.2114044217879485,0.34466817364589164,Malonic acid,141-82-2,867,No,10.1016/j.fluid.2011.09.033
O=C(O)CC(=O)O,313.2,ethanol,CCO,0.125,2.3939409827661526,0.3791134396481153,Malonic acid,141-82-2,867,No,10.1016/j.fluid.2011.09.033
O=C(O)CC(=O)O,318.2,ethanol,CCO,0.137,2.6451869446975365,0.42245637057972446,Malonic acid,141-82-2,867,No,10.1016/j.fluid.2011.09.033
O=C(O)CC(=O)O,323.2,ethanol,CCO,0.141,2.719528396069136,0.4344935978788051,Malonic acid,141-82-2,867,No,10.1016/j.fluid.2011.09.033
O=C(O)CC(=O)O,328.2,ethanol,CCO,0.153,2.9756543904729904,0.4735824883568189,Malonic acid,141-82-2,867,No,10.1016/j.fluid.2011.09.033
O=C(O)CC(=O)O,333.2,ethanol,CCO,0.159,3.0964781497760754,0.49086801976778943,Malonic acid,141-82-2,867,No,10.1016/j.fluid.2011.09.033
O=C(O)CC(O)(CC(=O)O)C(=O)O,303.2,ethanol,CCO,0.051,0.9107593285624049,-0.0405963717495894,Citric acid,77-92-9,311,Yes,10.1016/j.fluid.2011.09.033
O=C(O)CC(O)(CC(=O)O)C(=O)O,308.2,ethanol,CCO,0.063,1.13308739427202,0.054263407997849636,Citric acid,77-92-9,311,Yes,10.1016/j.fluid.2011.09.033
O=C(O)CC(O)(CC(=O)O)C(=O)O,313.2,ethanol,CCO,0.069,1.2419693820365754,0.09411088941828478,Citric acid,77-92-9,311,Yes,10.1016/j.fluid.2011.09.033
O=C(O)CC(O)(CC(=O)O)C(=O)O,318.2,ethanol,CCO,0.076,1.3705289705882229,0.1368882201992118,Citric acid,77-92-9,311,Yes,10.1016/j.fluid.2011.09.033
O=C(O)CC(O)(CC(=O)O)C(=O)O,323.2,ethanol,CCO,0.088,1.5986576965570032,0.20375548287641995,Citric acid,77-92-9,311,Yes,10.1016/j.fluid.2011.09.033
O=C(O)CC(O)(CC(=O)O)C(=O)O,328.2,ethanol,CCO,0.109,2.015223698800921,0.30432326177367586,Citric acid,77-92-9,311,Yes,10.1016/j.fluid.2011.09.033
O=C(O)CC(O)(CC(=O)O)C(=O)O,333.2,ethanol,CCO,0.125,2.339746742103935,0.36916885123099336,Citric acid,77-92-9,311,Yes,10.1016/j.fluid.2011.09.033
O=C(O)CC(O)C(=O)O,303.2,ethanol,CCO,0.082,1.513808138537939,0.18007083576224114,Malic acid,6915-15-7,525,Yes,10.1016/j.fluid.2011.09.033
O=C(O)CC(O)C(=O)O,308.2,ethanol,CCO,0.091,1.6870966323954866,0.2271399585311723,Malic acid,6915-15-7,525,Yes,10.1016/j.fluid.2011.09.033
O=C(O)CC(O)C(=O)O,313.2,ethanol,CCO,0.101,1.882665489227664,0.27477316171178595,Malic acid,6915-15-7,525,Yes,10.1016/j.fluid.2011.09.033
O=C(O)CC(O)C(=O)O,318.2,ethanol,CCO,0.115,2.165215706433312,0.33550116879431346,Malic acid,6915-15-7,525,Yes,10.1016/j.fluid.2011.09.033
O=C(O)CC(O)C(=O)O,323.2,ethanol,CCO,0.121,2.2806788981598203,0.3580641442973457,Malic acid,6915-15-7,525,Yes,10.1016/j.fluid.2011.09.033
O=C(O)CC(O)C(=O)O,328.2,ethanol,CCO,0.129,2.4397539126858194,0.38734602316151273,Malic acid,6915-15-7,525,Yes,10.1016/j.fluid.2011.09.033
O=C(O)CC(O)C(=O)O,333.2,ethanol,CCO,0.134,2.534275339599874,0.4038537975927111,Malic acid,6915-15-7,525,Yes,10.1016/j.fluid.2011.09.033
Nc1cccnc1,283.15,ethanol,CCO,0.438,13.493175060247319,1.1301141549274687,3-aminopyridine,462-08-8,10009,No,10.1016/j.fluid.2011.11.023
Nc1cccnc1,288.15,ethanol,CCO,0.476,15.642434125115013,1.1943043347117748,3-aminopyridine,462-08-8,10009,No,10.1016/j.fluid.2011.11.023
Nc1cccnc1,293.15,ethanol,CCO,0.5177,18.39635389562755,1.2647317556225843,3-aminopyridine,462-08-8,10009,No,10.1016/j.fluid.2011.11.023
Nc1cccnc1,298.15,ethanol,CCO,0.5655,22.189194069505135,1.3461415285716662,3-aminopyridine,462-08-8,10009,No,10.1016/j.fluid.2011.11.023
Nc1cccnc1,303.15,ethanol,CCO,0.6118,26.714101953715485,1.4267405791140448,3-aminopyridine,462-08-8,10009,No,10.1016/j.fluid.2011.11.023
Nc1cccnc1,308.15,ethanol,CCO,0.6605,32.787611820407314,1.5157097847391816,3-aminopyridine,462-08-8,10009,No,10.1016/j.fluid.2011.11.023
Nc1cccnc1,313.15,ethanol,CCO,0.7099,41.015849595110105,1.612951711879839,3-aminopyridine,462-08-8,10009,No,10.1016/j.fluid.2011.11.023
Nc1cccnc1,318.15,ethanol,CCO,0.7639,53.91318533865225,1.7316949918941542,3-aminopyridine,462-08-8,10009,No,10.1016/j.fluid.2011.11.023
Nc1cccnc1,323.15,ethanol,CCO,0.8212,76.08709491933678,1.881311002623525,3-aminopyridine,462-08-8,10009,No,10.1016/j.fluid.2011.11.023
c1cc2ccc3cccc4ccc(c1)c2c34,295.55,ethanol,CCO,0.00294,0.050399748355262994,-1.2975716319710127,Pyrene,129-00-0,31423,No,10.1016/j.fluid.2012.01.019
c1cc2ccc3cccc4ccc(c1)c2c34,298.85,ethanol,CCO,0.00321,0.05484162724788157,-1.2608896674074892,Pyrene,129-00-0,31423,No,10.1016/j.fluid.2012.01.019
c1cc2ccc3cccc4ccc(c1)c2c34,303.75,ethanol,CCO,0.00363,0.06170469666808784,-1.2096817782778706,Pyrene,129-00-0,31423,No,10.1016/j.fluid.2012.01.019
c1cc2ccc3cccc4ccc(c1)c2c34,308.75,ethanol,CCO,0.00424,0.07171412418151418,-1.144395301096513,Pyrene,129-00-0,31423,No,10.1016/j.fluid.2012.01.019
c1cc2ccc3cccc4ccc(c1)c2c34,313.55,ethanol,CCO,0.00479,0.08062322658191189,-1.0935398251524633,Pyrene,129-00-0,31423,No,10.1016/j.fluid.2012.01.019
c1cc2ccc3cccc4ccc(c1)c2c34,318.45,ethanol,CCO,0.00536,0.0897680634170191,-1.0468781438304162,Pyrene,129-00-0,31423,No,10.1016/j.fluid.2012.01.019
c1cc2ccc3cccc4ccc(c1)c2c34,323.45,ethanol,CCO,0.00628,0.1046740293617927,-0.9801610576139168,Pyrene,129-00-0,31423,No,10.1016/j.fluid.2012.01.019
c1cc2ccc3cccc4ccc(c1)c2c34,328.15,ethanol,CCO,0.0072,0.11941937145082922,-0.9229252190038023,Pyrene,129-00-0,31423,No,10.1016/j.fluid.2012.01.019
c1cc2ccc3cccc4ccc(c1)c2c34,333.15,ethanol,CCO,0.008199999999999999,0.13538877004114716,-0.8684173571532717,Pyrene,129-00-0,31423,No,10.1016/j.fluid.2012.01.019
C[C@H]1COc2c(N3CCN(C)CC3)c(F)cc3c(=O)c(C(=O)O)cn1c23,288.15,ethanol,CCO,0.00057,0.009820896702064194,-2.007848856919856,Levofloxacin,100986-85-4,149096,Yes,10.1016/j.fluid.2012.05.027
C[C@H]1COc2c(N3CCN(C)CC3)c(F)cc3c(=O)c(C(=O)O)cn1c23,293.15,ethanol,CCO,0.0007920000000000001,0.013584389694698936,-1.8669598683376203,Levofloxacin,100986-85-4,149096,Yes,10.1016/j.fluid.2012.05.027
C[C@H]1COc2c(N3CCN(C)CC3)c(F)cc3c(=O)c(C(=O)O)cn1c23,298.15,ethanol,CCO,0.0010689999999999999,0.01824487593152337,-1.7388590855708037,Levofloxacin,100986-85-4,149096,Yes,10.1016/j.fluid.2012.05.027
C[C@H]1COc2c(N3CCN(C)CC3)c(F)cc3c(=O)c(C(=O)O)cn1c23,303.15,ethanol,CCO,0.00134,0.022744363139806677,-1.6431262192534573,Levofloxacin,100986-85-4,149096,Yes,10.1016/j.fluid.2012.05.027
C[C@H]1COc2c(N3CCN(C)CC3)c(F)cc3c(=O)c(C(=O)O)cn1c23,308.15,ethanol,CCO,0.0017829999999999999,0.03010253865811467,-1.521396877206179,Levofloxacin,100986-85-4,149096,Yes,10.1016/j.fluid.2012.05.027
C[C@H]1COc2c(N3CCN(C)CC3)c(F)cc3c(=O)c(C(=O)O)cn1c23,313.15,ethanol,CCO,0.00254,0.04268158044599258,-1.3697595075637465,Levofloxacin,100986-85-4,149096,Yes,10.1016/j.fluid.2012.05.027
C[C@H]1COc2c(N3CCN(C)CC3)c(F)cc3c(=O)c(C(=O)O)cn1c23,318.15,ethanol,CCO,0.003211,0.053677408191347586,-1.270208462201404,Levofloxacin,100986-85-4,149096,Yes,10.1016/j.fluid.2012.05.027
C[C@H]1COc2c(N3CCN(C)CC3)c(F)cc3c(=O)c(C(=O)O)cn1c23,323.15,ethanol,CCO,0.0041210000000000005,0.06855286603882049,-1.1639743836341305,Levofloxacin,100986-85-4,149096,Yes,10.1016/j.fluid.2012.05.027
C[C@H]1COc2c(N3CCN(C)CC3)c(F)cc3c(=O)c(C(=O)O)cn1c23,328.15,ethanol,CCO,0.005263,0.08712226364742433,-1.0598708490831616,Levofloxacin,100986-85-4,149096,Yes,10.1016/j.fluid.2012.05.027
CC1(C)COP(=O)(O)OC1c1ccccc1Cl,278.15,ethanol,CCO,0.00426,0.07453701441710273,-1.1276280069154945,Chlocyphos,,4393690,No,10.1016/j.fluid.2012.06.010
CC1(C)COP(=O)(O)OC1c1ccccc1Cl,283.15,ethanol,CCO,0.004730000000000001,0.08228043654626346,-1.0847034127827295,Chlocyphos,,4393690,No,10.1016/j.fluid.2012.06.010
CC1(C)COP(=O)(O)OC1c1ccccc1Cl,288.15,ethanol,CCO,0.00536,0.09279563287194792,-1.0324724619734142,Chlocyphos,,4393690,No,10.1016/j.fluid.2012.06.010
CC1(C)COP(=O)(O)OC1c1ccccc1Cl,293.15,ethanol,CCO,0.00614,0.1058800193141608,-0.9751859881486201,Chlocyphos,,4393690,No,10.1016/j.fluid.2012.06.010
CC1(C)COP(=O)(O)OC1c1ccccc1Cl,298.15,ethanol,CCO,0.006849999999999999,0.11759109233157805,-0.9296255753496959,Chlocyphos,,4393690,No,10.1016/j.fluid.2012.06.010
CC1(C)COP(=O)(O)OC1c1ccccc1Cl,303.15,ethanol,CCO,0.00783,0.1337711030937545,-0.8736376916677014,Chlocyphos,,4393690,No,10.1016/j.fluid.2012.06.010
CC1(C)COP(=O)(O)OC1c1ccccc1Cl,308.15,ethanol,CCO,0.00884,0.15030908789057884,-0.8230147605879883,Chlocyphos,,4393690,No,10.1016/j.fluid.2012.06.010
CC1(C)COP(=O)(O)OC1c1ccccc1Cl,313.15,ethanol,CCO,0.009949999999999999,0.16844891467543577,-0.7735317828543528,Chlocyphos,,4393690,No,10.1016/j.fluid.2012.06.010
CC1(C)COP(=O)(O)OC1c1ccccc1Cl,318.15,ethanol,CCO,0.01214,0.20477538690252528,-0.6887222448387623,Chlocyphos,,4393690,No,10.1016/j.fluid.2012.06.010
CC1(C)COP(=O)(O)OC1c1ccccc1Cl,323.15,ethanol,CCO,0.01345,0.22585658634167327,-0.6461672401916412,Chlocyphos,,4393690,No,10.1016/j.fluid.2012.06.010
O=C(O)CCCCCCC(=O)O,283.25,ethanol,CCO,0.015780000000000002,0.2777826085144717,-0.5562949481687165,Suberic acid,505-48-6,10457,No,10.1016/j.fluid.2012.06.012
O=C(O)CCCCCCC(=O)O,290.35,ethanol,CCO,0.02105,0.3696518330519385,-0.43220713585529624,Suberic acid,505-48-6,10457,No,10.1016/j.fluid.2012.06.012
O=C(O)CCCCCCC(=O)O,297.05,ethanol,CCO,0.02811,0.49354020133193344,-0.30667746608343455,Suberic acid,505-48-6,10457,No,10.1016/j.fluid.2012.06.012
O=C(O)CCCCCCC(=O)O,303.85,ethanol,CCO,0.03735,0.657061150799971,-0.1823942100153488,Suberic acid,505-48-6,10457,No,10.1016/j.fluid.2012.06.012
O=C(O)CCCCCCC(=O)O,310.95,ethanol,CCO,0.04915,0.8684156460818493,-0.0612723605448884,Suberic acid,505-48-6,10457,No,10.1016/j.fluid.2012.06.012
O=C(O)CCCCCCC(=O)O,317.85,ethanol,CCO,0.06268,1.1147069293072964,0.04716070082380445,Suberic acid,505-48-6,10457,No,10.1016/j.fluid.2012.06.012
O=C(O)CCCCCCC(=O)O,324.85,ethanol,CCO,0.07947,1.4276171182010438,0.15461174683173265,Suberic acid,505-48-6,10457,No,10.1016/j.fluid.2012.06.012
CCOc1nc2cccc(C(=O)OC(C)OC(=O)OC3CCCCC3)c2n1Cc1ccc(-c2ccccc2-c2nn[nH]n2)cc1,303.15,ethanol,CCO,0.001439,0.02442715180018213,-1.6121271687030234,Candesartan cilexetil,145040-37-5,2540,Yes,10.1016/j.fluid.2012.09.027
CCOc1nc2cccc(C(=O)OC(C)OC(=O)OC3CCCCC3)c2n1Cc1ccc(-c2ccccc2-c2nn[nH]n2)cc1,313.15,ethanol,CCO,0.00235,0.03948134324102603,-1.403608080109753,Candesartan cilexetil,145040-37-5,2540,Yes,10.1016/j.fluid.2012.09.027
CCOc1nc2cccc(C(=O)OC(C)OC(=O)OC3CCCCC3)c2n1Cc1ccc(-c2ccccc2-c2nn[nH]n2)cc1,323.15,ethanol,CCO,0.004654,0.07746078249649918,-1.1109181201540257,Candesartan cilexetil,145040-37-5,2540,Yes,10.1016/j.fluid.2012.09.027
CCOc1nc2cccc(C(=O)OC(C)OC(=O)OC3CCCCC3)c2n1Cc1ccc(-c2ccccc2-c2nn[nH]n2)cc1,333.15,ethanol,CCO,0.008236,0.13598809581031393,-0.8664991074398501,Candesartan cilexetil,145040-37-5,2540,Yes,10.1016/j.fluid.2012.09.027
CCOc1nc2cccc(C(=O)OC(C)OC(=O)OC3CCCCC3)c2n1Cc1ccc(-c2ccccc2-c2nn[nH]n2)cc1,343.15,ethanol,CCO,0.011779999999999999,0.19298563068355198,-0.7144750264697617,Candesartan cilexetil,145040-37-5,2540,Yes,10.1016/j.fluid.2012.09.027
O=C(O)CCP(=O)([O-])c1ccccc1.[Na+],293.15,ethanol,CCO,0.00065,0.01114722051371204,-1.9528334075968117,Propanoic acid 3-(hydroxyphenylphosphinyl)-monosodium salt,,,No,10.1016/j.fluid.2013.02.001
O=C(O)CCP(=O)([O-])c1ccccc1.[Na+],298.15,ethanol,CCO,0.00076,0.012967088702058987,-1.8871575183302538,Propanoic acid 3-(hydroxyphenylphosphinyl)-monosodium salt,,,No,10.1016/j.fluid.2013.02.001
O=C(O)CCP(=O)([O-])c1ccccc1.[Na+],303.15,ethanol,CCO,0.00095,0.016118440435233892,-1.792676981336024,Propanoic acid 3-(hydroxyphenylphosphinyl)-monosodium salt,,,No,10.1016/j.fluid.2013.02.001
O=C(O)CCP(=O)([O-])c1ccccc1.[Na+],308.15,ethanol,CCO,0.00106,0.01788311638468492,-1.7475567970200618,Propanoic acid 3-(hydroxyphenylphosphinyl)-monosodium salt,,,No,10.1016/j.fluid.2013.02.001
O=C(O)CCP(=O)([O-])c1ccccc1.[Na+],313.15,ethanol,CCO,0.00122,0.020473507782890754,-1.6888077420839223,Propanoic acid 3-(hydroxyphenylphosphinyl)-monosodium salt,,,No,10.1016/j.fluid.2013.02.001
O=C(O)CCP(=O)([O-])c1ccccc1.[Na+],318.15,ethanol,CCO,0.00166,0.027706654228158573,-1.5574159151408244,Propanoic acid 3-(hydroxyphenylphosphinyl)-monosodium salt,,,No,10.1016/j.fluid.2013.02.001
O=C(O)CCP(=O)([O-])c1ccccc1.[Na+],323.15,ethanol,CCO,0.00199,0.03303298041602431,-1.4810522401191084,Propanoic acid 3-(hydroxyphenylphosphinyl)-monosodium salt,,,No,10.1016/j.fluid.2013.02.001
O=C(O)CCP(=O)([O-])c1ccccc1.[Na+],328.15,ethanol,CCO,0.00223,0.036802597696660035,-1.4341215257420088,Propanoic acid 3-(hydroxyphenylphosphinyl)-monosodium salt,,,No,10.1016/j.fluid.2013.02.001
O=C(O)CCP(=O)([O-])c1ccccc1.[Na+],333.15,ethanol,CCO,0.00273,0.044827321172922895,-1.3484572132773835,Propanoic acid 3-(hydroxyphenylphosphinyl)-monosodium salt,,,No,10.1016/j.fluid.2013.02.001
O=C(O)CCP(=O)([O-])c1ccccc1.[Na+],343.15,ethanol,CCO,0.00413,0.06713990526293218,-1.1730192758943039,Propanoic acid 3-(hydroxyphenylphosphinyl)-monosodium salt,,,No,10.1016/j.fluid.2013.02.001
O=C([O-])CCP(=O)([O-])c1ccccc1.[Na+].[Na+],293.15,ethanol,CCO,7.03e-05,0.0012049158284636369,-2.919043290442276,Propanoic acid 3-(hydroxyphenylphosphinyl)-disodium salt,,,No,10.1016/j.fluid.2013.02.001
O=C([O-])CCP(=O)([O-])c1ccccc1.[Na+].[Na+],298.15,ethanol,CCO,9.7e-05,0.0016539126273151204,-2.781487437030863,Propanoic acid 3-(hydroxyphenylphosphinyl)-disodium salt,,,No,10.1016/j.fluid.2013.02.001