SMILES_Solute,Temperature_K,Solvent,SMILES_Solvent,Solubility(mole_fraction),Solubility(mol/L),LogS(mol/L),Compound_Name,CAS,PubChem_CID,FDA_Approved,Source
CC(=O)[C@H]1CC[C@H]2[C@@H]3CCC4=CC(=O)CC[C@]4(C)[C@H]3CC[C@]12C,313.15,ethanol,CCO,0.025095999999999997,0.43146435021396695,-0.36505508209236226,Progesterone,57-83-0,5994,Yes,10.1016/j.molliq.2020.114715
CC(=O)[C@H]1CC[C@H]2[C@@H]3CCC4=CC(=O)CC[C@]4(C)[C@H]3CC[C@]12C,318.15,ethanol,CCO,0.031876,0.5486397888005095,-0.26071269941123765,Progesterone,57-83-0,5994,Yes,10.1016/j.molliq.2020.114715
CC(=O)[C@H]1CC[C@H]2[C@@H]3CCC4=CC(=O)CC[C@]4(C)[C@H]3CC[C@]12C,323.15,ethanol,CCO,0.041142000000000005,0.7108217044249188,-0.1482393197974284,Progesterone,57-83-0,5994,Yes,10.1016/j.molliq.2020.114715
CC(C)C(=O)Nc1ccc([N+](=O)[O-])c(C(F)(F)F)c1,278.15,ethanol,CCO,0.05025,0.9217966201800611,-0.03536488857409362,Flutamide,13311-84-7,3397,Yes,10.1016/j.molliq.2020.114762
CC(C)C(=O)Nc1ccc([N+](=O)[O-])c(C(F)(F)F)c1,283.15,ethanol,CCO,0.05562,1.0196721635209658,0.008460563468404904,Flutamide,13311-84-7,3397,Yes,10.1016/j.molliq.2020.114762
CC(C)C(=O)Nc1ccc([N+](=O)[O-])c(C(F)(F)F)c1,288.15,ethanol,CCO,0.06301,1.1579856903065353,0.0637031926735352,Flutamide,13311-84-7,3397,Yes,10.1016/j.molliq.2020.114762
CC(C)C(=O)Nc1ccc([N+](=O)[O-])c(C(F)(F)F)c1,293.15,ethanol,CCO,0.07092999999999999,1.3084356714190128,0.1167523756312243,Flutamide,13311-84-7,3397,Yes,10.1016/j.molliq.2020.114762
CC(C)C(=O)Nc1ccc([N+](=O)[O-])c(C(F)(F)F)c1,298.15,ethanol,CCO,0.07974,1.47728533298631,0.16946438601841654,Flutamide,13311-84-7,3397,Yes,10.1016/j.molliq.2020.114762
CC(C)C(=O)Nc1ccc([N+](=O)[O-])c(C(F)(F)F)c1,303.15,ethanol,CCO,0.09078,1.6924187791837282,0.2285078356444967,Flutamide,13311-84-7,3397,Yes,10.1016/j.molliq.2020.114762
CC(C)C(=O)Nc1ccc([N+](=O)[O-])c(C(F)(F)F)c1,308.15,ethanol,CCO,0.10215999999999999,1.9176028908997533,0.2827586757507039,Flutamide,13311-84-7,3397,Yes,10.1016/j.molliq.2020.114762
CC(C)C(=O)Nc1ccc([N+](=O)[O-])c(C(F)(F)F)c1,313.15,ethanol,CCO,0.11731,2.227558369385889,0.34782909280771396,Flutamide,13311-84-7,3397,Yes,10.1016/j.molliq.2020.114762
CC(C)C(=O)Nc1ccc([N+](=O)[O-])c(C(F)(F)F)c1,318.15,ethanol,CCO,0.13330999999999998,2.5630283602126327,0.4087534117307555,Flutamide,13311-84-7,3397,Yes,10.1016/j.molliq.2020.114762
CC(C)C(=O)Nc1ccc([N+](=O)[O-])c(C(F)(F)F)c1,323.15,ethanol,CCO,0.1539,3.0133286527252436,0.4790465011659296,Flutamide,13311-84-7,3397,Yes,10.1016/j.molliq.2020.114762
Nc1ccc(O)c(C(=O)O)c1,293.2,ethanol,CCO,5.25e-05,0.0008997369307987931,-3.045884453008688,Mesalazine,89-57-6,4075,Yes,10.1016/j.molliq.2020.114763
Nc1ccc(O)c(C(=O)O)c1,298.2,ethanol,CCO,6.03e-05,0.0010277010009335909,-2.9881332204891837,Mesalazine,89-57-6,4075,Yes,10.1016/j.molliq.2020.114763
Nc1ccc(O)c(C(=O)O)c1,303.2,ethanol,CCO,6.69e-05,0.0011338479981115213,-2.9454451623796607,Mesalazine,89-57-6,4075,Yes,10.1016/j.molliq.2020.114763
Nc1ccc(O)c(C(=O)O)c1,308.2,ethanol,CCO,7.66e-05,0.0012909947831203686,-2.8890755127038465,Mesalazine,89-57-6,4075,Yes,10.1016/j.molliq.2020.114763
Nc1ccc(O)c(C(=O)O)c1,313.2,ethanol,CCO,8.35e-05,0.0013993753522687305,-2.8540657797506976,Mesalazine,89-57-6,4075,Yes,10.1016/j.molliq.2020.114763
COc1cc2nccc(Oc3ccc(NC(=O)C4(C(=O)Nc5ccc(F)cc5)CC4)cc3)c2cc1OC.O=C(O)C[C@H](O)C(=O)O,298.2,ethanol,CCO,0.000391,0.006666070130771459,-2.1761301216315583,Cabozantinib malate,1140909-48-3,25102846,Yes,10.1016/j.molliq.2020.115146
COc1cc2nccc(Oc3ccc(NC(=O)C4(C(=O)Nc5ccc(F)cc5)CC4)cc3)c2cc1OC.O=C(O)C[C@H](O)C(=O)O,303.2,ethanol,CCO,0.0005070000000000001,0.008596622715608997,-2.0656721329482175,Cabozantinib malate,1140909-48-3,25102846,Yes,10.1016/j.molliq.2020.115146
COc1cc2nccc(Oc3ccc(NC(=O)C4(C(=O)Nc5ccc(F)cc5)CC4)cc3)c2cc1OC.O=C(O)C[C@H](O)C(=O)O,308.2,ethanol,CCO,0.000724,0.01220999704143589,-1.9132844412875682,Cabozantinib malate,1140909-48-3,25102846,Yes,10.1016/j.molliq.2020.115146
COc1cc2nccc(Oc3ccc(NC(=O)C4(C(=O)Nc5ccc(F)cc5)CC4)cc3)c2cc1OC.O=C(O)C[C@H](O)C(=O)O,313.2,ethanol,CCO,0.000977,0.01638817362677107,-1.7854694435015936,Cabozantinib malate,1140909-48-3,25102846,Yes,10.1016/j.molliq.2020.115146
COc1cc2nccc(Oc3ccc(NC(=O)C4(C(=O)Nc5ccc(F)cc5)CC4)cc3)c2cc1OC.O=C(O)C[C@H](O)C(=O)O,318.2,ethanol,CCO,0.00127,0.021188598156578173,-1.6738977753798971,Cabozantinib malate,1140909-48-3,25102846,Yes,10.1016/j.molliq.2020.115146
Oc1ccccc1/C=N/CC/N=C/c1ccccc1O,278.15,ethanol,CCO,0.00026000000000000003,0.004531005890470098,-2.3438053732220507,Salen,94-93-9,26518,No,10.1016/j.molliq.2020.115147
Oc1ccccc1/C=N/CC/N=C/c1ccccc1O,283.15,ethanol,CCO,0.00035,0.006061727847556343,-2.2174035659818827,Salen,94-93-9,26518,No,10.1016/j.molliq.2020.115147
Oc1ccccc1/C=N/CC/N=C/c1ccccc1O,288.15,ethanol,CCO,0.00047999999999999996,0.008269484123700654,-2.082521582251351,Salen,94-93-9,26518,No,10.1016/j.molliq.2020.115147
Oc1ccccc1/C=N/CC/N=C/c1ccccc1O,293.15,ethanol,CCO,0.00069,0.011833676969510357,-1.926880290076238,Salen,94-93-9,26518,No,10.1016/j.molliq.2020.115147
Oc1ccccc1/C=N/CC/N=C/c1ccccc1O,298.15,ethanol,CCO,0.0009,0.015357914680028973,-1.8136677494372149,Salen,94-93-9,26518,No,10.1016/j.molliq.2020.115147
Oc1ccccc1/C=N/CC/N=C/c1ccccc1O,303.15,ethanol,CCO,0.0011200000000000001,0.01900602703115792,-1.7211086573993035,Salen,94-93-9,26518,No,10.1016/j.molliq.2020.115147
Oc1ccccc1/C=N/CC/N=C/c1ccccc1O,308.15,ethanol,CCO,0.00147,0.024810353874474927,-1.6053670412644407,Salen,94-93-9,26518,No,10.1016/j.molliq.2020.115147
Oc1ccccc1/C=N/CC/N=C/c1ccccc1O,313.15,ethanol,CCO,0.00199,0.033421077539186016,-1.4759795519956356,Salen,94-93-9,26518,No,10.1016/j.molliq.2020.115147
Oc1ccccc1/C=N/CC/N=C/c1ccccc1O,318.15,ethanol,CCO,0.00252,0.04209696759870559,-1.3757491868859595,Salen,94-93-9,26518,No,10.1016/j.molliq.2020.115147
O=c1cc(-c2ccccc2)oc2cc(O)cc(O)c12,293.2,ethanol,CCO,0.00045526,0.007805319742592012,-2.1076093014934187,Chrysin,480-40-0,5281607,No,10.1016/j.molliq.2020.115180
O=c1cc(-c2ccccc2)oc2cc(O)cc(O)c12,298.2,ethanol,CCO,0.00050464,0.008604470856415615,-2.0652758320423765,Chrysin,480-40-0,5281607,No,10.1016/j.molliq.2020.115180
O=c1cc(-c2ccccc2)oc2cc(O)cc(O)c12,303.2,ethanol,CCO,0.00063669,0.010797029609809237,-1.9666957076151887,Chrysin,480-40-0,5281607,No,10.1016/j.molliq.2020.115180
O=c1cc(-c2ccccc2)oc2cc(O)cc(O)c12,308.2,ethanol,CCO,0.00070866,0.011951110050105991,-1.9225917544441988,Chrysin,480-40-0,5281607,No,10.1016/j.molliq.2020.115180
O=c1cc(-c2ccccc2)oc2cc(O)cc(O)c12,313.2,ethanol,CCO,0.0008220100000000001,0.013786236414900649,-1.8605542782278446,Chrysin,480-40-0,5281607,No,10.1016/j.molliq.2020.115180
O=c1cc(-c2ccccc2)oc2cc(O)cc(O)c12,318.2,ethanol,CCO,0.0009026500000000001,0.01505421723100658,-1.8223418214260465,Chrysin,480-40-0,5281607,No,10.1016/j.molliq.2020.115180
O=c1cc(-c2ccccc2)oc2cc(O)cc(O)c12,323.2,ethanol,CCO,0.00113171,0.018771309751853812,-1.7265054238007145,Chrysin,480-40-0,5281607,No,10.1016/j.molliq.2020.115180
O=c1cc(-c2ccccc2)oc2cc(O)cc(O)c12,328.2,ethanol,CCO,0.0014365299999999999,0.02369809813289517,-1.625286506459591,Chrysin,480-40-0,5281607,No,10.1016/j.molliq.2020.115180
O=c1cc(-c2ccccc2)oc2cc(O)cc(O)c12,333.2,ethanol,CCO,0.0017088000000000001,0.02803502087401995,-1.5522991162029647,Chrysin,480-40-0,5281607,No,10.1016/j.molliq.2020.115180
NS(=O)(=O)Cc1noc2ccccc12,278.15,ethanol,CCO,0.001388,0.024215923342240344,-1.6158989668489194,Zonisamide,68291-97-4,5734,Yes,10.1016/j.molliq.2020.115219
NS(=O)(=O)Cc1noc2ccccc12,283.15,ethanol,CCO,0.001616,0.02802335342021413,-1.5524798960041162,Zonisamide,68291-97-4,5734,Yes,10.1016/j.molliq.2020.115219
NS(=O)(=O)Cc1noc2ccccc12,288.15,ethanol,CCO,0.0018540000000000002,0.03198485071745861,-1.4950556719195394,Zonisamide,68291-97-4,5734,Yes,10.1016/j.molliq.2020.115219
NS(=O)(=O)Cc1noc2ccccc12,293.15,ethanol,CCO,0.002145,0.03684094072510317,-1.4336692887220641,Zonisamide,68291-97-4,5734,Yes,10.1016/j.molliq.2020.115219
NS(=O)(=O)Cc1noc2ccccc12,298.15,ethanol,CCO,0.002447,0.04182121928640613,-1.3786033095948935,Zonisamide,68291-97-4,5734,Yes,10.1016/j.molliq.2020.115219
NS(=O)(=O)Cc1noc2ccccc12,303.15,ethanol,CCO,0.0027919999999999998,0.04745875024517148,-1.3236837024602748,Zonisamide,68291-97-4,5734,Yes,10.1016/j.molliq.2020.115219
NS(=O)(=O)Cc1noc2ccccc12,308.15,ethanol,CCO,0.003159,0.05340728183793064,-1.2723995248735411,Zonisamide,68291-97-4,5734,Yes,10.1016/j.molliq.2020.115219
NS(=O)(=O)Cc1noc2ccccc12,313.15,ethanol,CCO,0.003558,0.05984890149634502,-1.2229438164932254,Zonisamide,68291-97-4,5734,Yes,10.1016/j.molliq.2020.115219
NS(=O)(=O)Cc1noc2ccccc12,318.15,ethanol,CCO,0.003995,0.0668358897546594,-1.1749902660161973,Zonisamide,68291-97-4,5734,Yes,10.1016/j.molliq.2020.115219
NS(=O)(=O)Cc1noc2ccccc12,323.15,ethanol,CCO,0.0044599999999999996,0.07421739740200288,-1.1294942792214941,Zonisamide,68291-97-4,5734,Yes,10.1016/j.molliq.2020.115219
CC(=O)N1CCN(c2ccc(OC[C@H]3CO[C@](Cn4ccnc4)(c4ccc(Cl)cc4Cl)O3)cc2)CC1,293.2,ethanol,CCO,0.00235,0.04036668613782057,-1.3939769020915733,Ketoconazole,65277-42-1,456201,No,10.1016/j.molliq.2021.115287
CC(=O)N1CCN(c2ccc(OC[C@H]3CO[C@](Cn4ccnc4)(c4ccc(Cl)cc4Cl)O3)cc2)CC1,298.2,ethanol,CCO,0.00299,0.05110871391670168,-1.2915050473544307,Ketoconazole,65277-42-1,456201,No,10.1016/j.molliq.2021.115287
CC(=O)N1CCN(c2ccc(OC[C@H]3CO[C@](Cn4ccnc4)(c4ccc(Cl)cc4Cl)O3)cc2)CC1,303.2,ethanol,CCO,0.00361,0.061401291527682735,-1.2118224937212636,Ketoconazole,65277-42-1,456201,No,10.1016/j.molliq.2021.115287
CC(=O)N1CCN(c2ccc(OC[C@H]3CO[C@](Cn4ccnc4)(c4ccc(Cl)cc4Cl)O3)cc2)CC1,308.2,ethanol,CCO,0.00438,0.07413835538286308,-1.1299570521892373,Ketoconazole,65277-42-1,456201,No,10.1016/j.molliq.2021.115287
CC(=O)N1CCN(c2ccc(OC[C@H]3CO[C@](Cn4ccnc4)(c4ccc(Cl)cc4Cl)O3)cc2)CC1,313.2,ethanol,CCO,0.0052699999999999995,0.08878035532681566,-1.051683121124501,Ketoconazole,65277-42-1,456201,No,10.1016/j.molliq.2021.115287
CO[C@H]1/C=C/O[C@@]2(C)Oc3c(C)c(O)c4c(O)c(c(/C=N/N5CCN(C)CC5)c(O)c4c3C2=O)NC(=O)/C(C)=C\C=C\[C@H](C)[C@H](O)[C@@H](C)[C@@H](O)[C@@H](C)[C@H](OC(C)=O)[C@@H]1C,298.2,ethanol,CCO,0.00011,0.0018748379628882863,-2.727036261197284,Rifampicin,13292-46-1,135550179,Yes,10.1016/j.molliq.2021.115432
CO[C@H]1/C=C/O[C@@]2(C)Oc3c(C)c(O)c4c(O)c(c(/C=N/N5CCN(C)CC5)c(O)c4c3C2=O)NC(=O)/C(C)=C\C=C\[C@H](C)[C@H](O)[C@@H](C)[C@@H](O)[C@@H](C)[C@H](OC(C)=O)[C@@H]1C,303.2,ethanol,CCO,0.00016,0.0027119965949241208,-2.566710860087641,Rifampicin,13292-46-1,135550179,Yes,10.1016/j.molliq.2021.115432
CO[C@H]1/C=C/O[C@@]2(C)Oc3c(C)c(O)c4c(O)c(c(/C=N/N5CCN(C)CC5)c(O)c4c3C2=O)NC(=O)/C(C)=C\C=C\[C@H](C)[C@H](O)[C@@H](C)[C@@H](O)[C@@H](C)[C@H](OC(C)=O)[C@@H]1C,308.2,ethanol,CCO,0.00022999999999999998,0.0038769498625884427,-2.4115098153306724,Rifampicin,13292-46-1,135550179,Yes,10.1016/j.molliq.2021.115432
CO[C@H]1/C=C/O[C@@]2(C)Oc3c(C)c(O)c4c(O)c(c(/C=N/N5CCN(C)CC5)c(O)c4c3C2=O)NC(=O)/C(C)=C\C=C\[C@H](C)[C@H](O)[C@@H](C)[C@@H](O)[C@@H](C)[C@H](OC(C)=O)[C@@H]1C,313.2,ethanol,CCO,0.00036,0.006034903841953808,-2.219329645407817,Rifampicin,13292-46-1,135550179,Yes,10.1016/j.molliq.2021.115432
CO[C@H]1/C=C/O[C@@]2(C)Oc3c(C)c(O)c4c(O)c(c(/C=N/N5CCN(C)CC5)c(O)c4c3C2=O)NC(=O)/C(C)=C\C=C\[C@H](C)[C@H](O)[C@@H](C)[C@@H](O)[C@@H](C)[C@H](OC(C)=O)[C@@H]1C,318.2,ethanol,CCO,0.00053,0.008835938935484025,-2.0537472941670543,Rifampicin,13292-46-1,135550179,Yes,10.1016/j.molliq.2021.115432
CS(=O)(=O)Nc1ccc([N+](=O)[O-])cc1Oc1ccccc1,278.15,ethanol,CCO,0.000289,0.005036533414169187,-2.2978682804381947,Nimesulide,51803-78-2,4495,Yes,10.1016/j.molliq.2021.115480
CS(=O)(=O)Nc1ccc([N+](=O)[O-])cc1Oc1ccccc1,283.15,ethanol,CCO,0.000369,0.006390914543457332,-2.194436989610426,Nimesulide,51803-78-2,4495,Yes,10.1016/j.molliq.2021.115480
CS(=O)(=O)Nc1ccc([N+](=O)[O-])cc1Oc1ccccc1,288.15,ethanol,CCO,0.000492,0.008476322991516138,-2.071792502791758,Nimesulide,51803-78-2,4495,Yes,10.1016/j.molliq.2021.115480
CS(=O)(=O)Nc1ccc([N+](=O)[O-])cc1Oc1ccccc1,293.15,ethanol,CCO,0.0006429999999999999,0.011027096283684461,-1.9575388333434898,Nimesulide,51803-78-2,4495,Yes,10.1016/j.molliq.2021.115480
CS(=O)(=O)Nc1ccc([N+](=O)[O-])cc1Oc1ccccc1,298.15,ethanol,CCO,0.000833,0.014213650081438411,-1.8472943804351,Nimesulide,51803-78-2,4495,Yes,10.1016/j.molliq.2021.115480
CS(=O)(=O)Nc1ccc([N+](=O)[O-])cc1Oc1ccccc1,303.15,ethanol,CCO,0.00107,0.018156634831899447,-1.7409646409120632,Nimesulide,51803-78-2,4495,Yes,10.1016/j.molliq.2021.115480
CS(=O)(=O)Nc1ccc([N+](=O)[O-])cc1Oc1ccccc1,308.15,ethanol,CCO,0.001341,0.022630195145696325,-1.6453117010018041,Nimesulide,51803-78-2,4495,Yes,10.1016/j.molliq.2021.115480
CS(=O)(=O)Nc1ccc([N+](=O)[O-])cc1Oc1ccccc1,313.15,ethanol,CCO,0.0017000000000000001,0.02854237546104819,-1.544509885226484,Nimesulide,51803-78-2,4495,Yes,10.1016/j.molliq.2021.115480
CS(=O)(=O)Nc1ccc([N+](=O)[O-])cc1Oc1ccccc1,318.15,ethanol,CCO,0.002072,0.034597523399443726,-1.4609549882722825,Nimesulide,51803-78-2,4495,Yes,10.1016/j.molliq.2021.115480
CS(=O)(=O)Nc1ccc([N+](=O)[O-])cc1Oc1ccccc1,323.15,ethanol,CCO,0.0027900000000000004,0.04634972424831108,-1.3339528452906408,Nimesulide,51803-78-2,4495,Yes,10.1016/j.molliq.2021.115480
CC(C)C(=O)Nc1ccc([N+](=O)[O-])c(C(F)(F)F)c1,278.15,ethanol,CCO,0.03358,0.6053731157489948,-0.21797686970437613,Flutamide,13311-84-7,3397,Yes,10.1016/j.molliq.2021.115559
CC(C)C(=O)Nc1ccc([N+](=O)[O-])c(C(F)(F)F)c1,283.15,ethanol,CCO,0.04062,0.7330365312804101,-0.13487438151417414,Flutamide,13311-84-7,3397,Yes,10.1016/j.molliq.2021.115559
CC(C)C(=O)Nc1ccc([N+](=O)[O-])c(C(F)(F)F)c1,288.15,ethanol,CCO,0.05027,0.9114595454197524,-0.040262602478958444,Flutamide,13311-84-7,3397,Yes,10.1016/j.molliq.2021.115559
CC(C)C(=O)Nc1ccc([N+](=O)[O-])c(C(F)(F)F)c1,293.15,ethanol,CCO,0.058589999999999996,1.0666342952444565,0.028015543340833997,Flutamide,13311-84-7,3397,Yes,10.1016/j.molliq.2021.115559
CC(C)C(=O)Nc1ccc([N+](=O)[O-])c(C(F)(F)F)c1,298.15,ethanol,CCO,0.06986,1.2804981639791764,0.10737896009903342,Flutamide,13311-84-7,3397,Yes,10.1016/j.molliq.2021.115559
CC(C)C(=O)Nc1ccc([N+](=O)[O-])c(C(F)(F)F)c1,303.15,ethanol,CCO,0.08298,1.5338442420905227,0.1857812603723757,Flutamide,13311-84-7,3397,Yes,10.1016/j.molliq.2021.115559
CC(C)C(=O)Nc1ccc([N+](=O)[O-])c(C(F)(F)F)c1,308.15,ethanol,CCO,0.0979,1.8289622866779918,0.2622047503881139,Flutamide,13311-84-7,3397,Yes,10.1016/j.molliq.2021.115559
CC(C)C(=O)Nc1ccc([N+](=O)[O-])c(C(F)(F)F)c1,313.15,ethanol,CCO,0.1155,2.1887008747576155,0.3401864114907637,Flutamide,13311-84-7,3397,Yes,10.1016/j.molliq.2021.115559
CC(C)C(=O)Nc1ccc([N+](=O)[O-])c(C(F)(F)F)c1,318.15,ethanol,CCO,0.13540000000000002,2.6095036105990466,0.4165579020966938,Flutamide,13311-84-7,3397,Yes,10.1016/j.molliq.2021.115559
CC(C)C(=O)Nc1ccc([N+](=O)[O-])c(C(F)(F)F)c1,323.15,ethanol,CCO,0.158,3.1086696403809033,0.4925745718396427,Flutamide,13311-84-7,3397,Yes,10.1016/j.molliq.2021.115559
CN1c2ccccc2C(=O)N2CCc3c([nH]c4ccccc34)[C@H]21,283.15,ethanol,CCO,5.936e-05,0.0010277702272212124,-2.9881039672509813,Evodiamine,518-17-2,442088,No,10.1016/j.molliq.2021.115658
CN1c2ccccc2C(=O)N2CCc3c([nH]c4ccccc34)[C@H]21,288.15,ethanol,CCO,7.312e-05,0.001259205489936699,-2.899903391525658,Evodiamine,518-17-2,442088,No,10.1016/j.molliq.2021.115658
CN1c2ccccc2C(=O)N2CCc3c([nH]c4ccccc34)[C@H]21,293.15,ethanol,CCO,8.949e-05,0.0015338547210830493,-2.81421577260336,Evodiamine,518-17-2,442088,No,10.1016/j.molliq.2021.115658
CN1c2ccccc2C(=O)N2CCc3c([nH]c4ccccc34)[C@H]21,298.15,ethanol,CCO,0.0001096,0.0018687743112502213,-2.7284431444729575,Evodiamine,518-17-2,442088,No,10.1016/j.molliq.2021.115658
CN1c2ccccc2C(=O)N2CCc3c([nH]c4ccccc34)[C@H]21,303.15,ethanol,CCO,0.0001318,0.0022343916080107057,-2.650840708439117,Evodiamine,518-17-2,442088,No,10.1016/j.molliq.2021.115658
CN1c2ccccc2C(=O)N2CCc3c([nH]c4ccccc34)[C@H]21,308.15,ethanol,CCO,0.00015690000000000002,0.0026446477264911753,-2.577632168857491,Evodiamine,518-17-2,442088,No,10.1016/j.molliq.2021.115658
CN1c2ccccc2C(=O)N2CCc3c([nH]c4ccccc34)[C@H]21,313.15,ethanol,CCO,0.0001864,0.0031248496943378982,-2.5051708674365583,Evodiamine,518-17-2,442088,No,10.1016/j.molliq.2021.115658
CN1c2ccccc2C(=O)N2CCc3c([nH]c4ccccc34)[C@H]21,318.15,ethanol,CCO,0.0002219,0.003698351216132949,-2.431991848183429,Evodiamine,518-17-2,442088,No,10.1016/j.molliq.2021.115658
CN1c2ccccc2C(=O)N2CCc3c([nH]c4ccccc34)[C@H]21,323.15,ethanol,CCO,0.00026260000000000004,0.004351493697491223,-2.3613616411538954,Evodiamine,518-17-2,442088,No,10.1016/j.molliq.2021.115658
O=c1ccn([C@@H]2O[C@H](CO)[C@@H](O)[C@H]2O)c(=O)[nH]1,278.15,ethanol,CCO,0.0005216,0.009092274051585155,-2.0413274826151833,Uridine,58-96-8,6029,No,10.1016/j.molliq.2021.115663
O=c1ccn([C@@H]2O[C@H](CO)[C@@H](O)[C@H]2O)c(=O)[nH]1,283.15,ethanol,CCO,0.0006416,0.011115255449000943,-1.9540805519648372,Uridine,58-96-8,6029,No,10.1016/j.molliq.2021.115663
O=c1ccn([C@@H]2O[C@H](CO)[C@@H](O)[C@H]2O)c(=O)[nH]1,288.15,ethanol,CCO,0.0007657,0.013195321700327403,-1.8795800172685686,Uridine,58-96-8,6029,No,10.1016/j.molliq.2021.115663
O=c1ccn([C@@H]2O[C@H](CO)[C@@H](O)[C@H]2O)c(=O)[nH]1,293.15,ethanol,CCO,0.0009037,0.015502001843952094,-1.8096122157880645,Uridine,58-96-8,6029,No,10.1016/j.molliq.2021.115663
O=c1ccn([C@@H]2O[C@H](CO)[C@@H](O)[C@H]2O)c(=O)[nH]1,298.15,ethanol,CCO,0.001086,0.01853533439170851,-1.7319995745567909,Uridine,58-96-8,6029,No,10.1016/j.molliq.2021.115663
O=c1ccn([C@@H]2O[C@H](CO)[C@@H](O)[C@H]2O)c(=O)[nH]1,303.15,ethanol,CCO,0.0012850000000000001,0.021809624707869867,-1.6613518075392972,Uridine,58-96-8,6029,No,10.1016/j.molliq.2021.115663
O=c1ccn([C@@H]2O[C@H](CO)[C@@H](O)[C@H]2O)c(=O)[nH]1,308.15,ethanol,CCO,0.001552,0.02619648407215189,-1.5817569930515263,Uridine,58-96-8,6029,No,10.1016/j.molliq.2021.115663
O=c1ccn([C@@H]2O[C@H](CO)[C@@H](O)[C@H]2O)c(=O)[nH]1,313.15,ethanol,CCO,0.0018490000000000002,0.0310486648511282,-1.507957070535859,Uridine,58-96-8,6029,No,10.1016/j.molliq.2021.115663
O=c1ccn([C@@H]2O[C@H](CO)[C@@H](O)[C@H]2O)c(=O)[nH]1,318.15,ethanol,CCO,0.0022040000000000002,0.03680648127112891,-1.4340756994665789,Uridine,58-96-8,6029,No,10.1016/j.molliq.2021.115663
O=c1ccn([C@@H]2O[C@H](CO)[C@@H](O)[C@H]2O)c(=O)[nH]1,323.15,ethanol,CCO,0.0026079999999999996,0.043318287863224995,-1.3633287170108939,Uridine,58-96-8,6029,No,10.1016/j.molliq.2021.115663
COc1ccc(C(=O)O)cc1,273.15,ethanol,CCO,0.00549,0.09670061438967226,-1.014570766607828,4-methoxybenzoic acid,100-09-4,7478,No,10.1016/j.molliq.2021.115669
COc1ccc(C(=O)O)cc1,278.15,ethanol,CCO,0.00653,0.11451615868145489,-0.9411332283366692,4-methoxybenzoic acid,100-09-4,7478,No,10.1016/j.molliq.2021.115669
COc1ccc(C(=O)O)cc1,283.15,ethanol,CCO,0.00757,0.13206032309747479,-0.8792276445211429,4-methoxybenzoic acid,100-09-4,7478,No,10.1016/j.molliq.2021.115669
COc1ccc(C(=O)O)cc1,288.15,ethanol,CCO,0.00887,0.15410675193470194,-0.8121783329639641,4-methoxybenzoic acid,100-09-4,7478,No,10.1016/j.molliq.2021.115669
COc1ccc(C(=O)O)cc1,293.15,ethanol,CCO,0.0101,0.1748641986926715,-0.7572990979071,4-methoxybenzoic acid,100-09-4,7478,No,10.1016/j.molliq.2021.115669
COc1ccc(C(=O)O)cc1,298.15,ethanol,CCO,0.011800000000000001,0.20358035054806717,-0.6912641421523953,4-methoxybenzoic acid,100-09-4,7478,No,10.1016/j.molliq.2021.115669
COc1ccc(C(=O)O)cc1,303.15,ethanol,CCO,0.0136,0.23370740989964325,-0.6313275176997287,4-methoxybenzoic acid,100-09-4,7478,No,10.1016/j.molliq.2021.115669
COc1ccc(C(=O)O)cc1,308.15,ethanol,CCO,0.016300000000000002,0.2792554607896157,-0.5539983255799137,4-methoxybenzoic acid,100-09-4,7478,No,10.1016/j.molliq.2021.115669
COc1ccc(C(=O)O)cc1,313.15,ethanol,CCO,0.0188,0.321146042269952,-0.49329742576232577,4-methoxybenzoic acid,100-09-4,7478,No,10.1016/j.molliq.2021.115669
COc1ccc(C(=O)O)cc1,318.15,ethanol,CCO,0.0221,0.37657570385353073,-0.42414770349812675,4-methoxybenzoic acid,100-09-4,7478,No,10.1016/j.molliq.2021.115669
COc1cc(/C=C/c2ccc(O)cc2)cc(OC)c1,298.2,ethanol,CCO,0.11299999999999999,2.171091376145307,0.3366781022755007,Pterostilbene,537-42-8,5281727,No,10.1016/j.molliq.2021.115700