SMILES_Solute,Temperature_K,Solvent,SMILES_Solvent,Solubility(mole_fraction),Solubility(mol/L),LogS(mol/L),Compound_Name,CAS,PubChem_CID,FDA_Approved,Source
COc1cccc(C(=O)O)c1OC,278.15,ethanol,CCO,0.01309,0.2310843022892975,-0.6362295554325637,"2,3-dimethoxybenzoic acid",1521-38-6,15204,No,10.1016/j.molliq.2021.118029
COc1cccc(C(=O)O)c1OC,283.15,ethanol,CCO,0.01647,0.2899227848931203,-0.5377176523079651,"2,3-dimethoxybenzoic acid",1521-38-6,15204,No,10.1016/j.molliq.2021.118029
COc1cccc(C(=O)O)c1OC,288.15,ethanol,CCO,0.02016,0.3542941912919392,-0.4506359679336521,"2,3-dimethoxybenzoic acid",1521-38-6,15204,No,10.1016/j.molliq.2021.118029
COc1cccc(C(=O)O)c1OC,293.15,ethanol,CCO,0.025160000000000002,0.44233178538286944,-0.35425185167629936,"2,3-dimethoxybenzoic acid",1521-38-6,15204,No,10.1016/j.molliq.2021.118029
COc1cccc(C(=O)O)c1OC,298.15,ethanol,CCO,0.030440000000000002,0.5352647677864276,-0.2714313418202023,"2,3-dimethoxybenzoic acid",1521-38-6,15204,No,10.1016/j.molliq.2021.118029
COc1cccc(C(=O)O)c1OC,303.15,ethanol,CCO,0.03839,0.6767149618340033,-0.16959422137361063,"2,3-dimethoxybenzoic acid",1521-38-6,15204,No,10.1016/j.molliq.2021.118029
COc1cccc(C(=O)O)c1OC,308.15,ethanol,CCO,0.04659,0.8235495781542898,-0.08431025093173368,"2,3-dimethoxybenzoic acid",1521-38-6,15204,No,10.1016/j.molliq.2021.118029
COc1cccc(C(=O)O)c1OC,313.15,ethanol,CCO,0.05918,1.0543157255555529,0.022970684248305465,"2,3-dimethoxybenzoic acid",1521-38-6,15204,No,10.1016/j.molliq.2021.118029
COc1cccc(C(=O)O)c1OC,318.15,ethanol,CCO,0.07144,1.2819938547496195,0.10788594339284016,"2,3-dimethoxybenzoic acid",1521-38-6,15204,No,10.1016/j.molliq.2021.118029
COc1cccc(C(=O)O)c1OC,323.15,ethanol,CCO,0.08840999999999999,1.6066874987722501,0.20593141456266112,"2,3-dimethoxybenzoic acid",1521-38-6,15204,No,10.1016/j.molliq.2021.118029
CC(=CC(C)=Nc1c(C)cccc1C)Nc1c(C)cccc1C,273.15,ethanol,CCO,0.009300000000000001,0.16443975797412444,-0.7839931710949205,"N-{3-[(2,6-Dimethylphenyl)amino]-1-methyl-2-buten-1-ylidene}-2,6-dimethylbenzenamine",267431-79-8,1284734,No,10.1016/j.molliq.2021.118055
CC(=CC(C)=Nc1c(C)cccc1C)Nc1c(C)cccc1C,278.15,ethanol,CCO,0.009899999999999999,0.17420655064559093,-0.7589355183539345,"N-{3-[(2,6-Dimethylphenyl)amino]-1-methyl-2-buten-1-ylidene}-2,6-dimethylbenzenamine",267431-79-8,1284734,No,10.1016/j.molliq.2021.118055
CC(=CC(C)=Nc1c(C)cccc1C)Nc1c(C)cccc1C,283.15,ethanol,CCO,0.010700000000000001,0.18725444195192495,-0.7275678713997697,"N-{3-[(2,6-Dimethylphenyl)amino]-1-methyl-2-buten-1-ylidene}-2,6-dimethylbenzenamine",267431-79-8,1284734,No,10.1016/j.molliq.2021.118055
CC(=CC(C)=Nc1c(C)cccc1C)Nc1c(C)cccc1C,288.15,ethanol,CCO,0.011699999999999999,0.20385705003638183,-0.6906742646437406,"N-{3-[(2,6-Dimethylphenyl)amino]-1-methyl-2-buten-1-ylidene}-2,6-dimethylbenzenamine",267431-79-8,1284734,No,10.1016/j.molliq.2021.118055
CC(=CC(C)=Nc1c(C)cccc1C)Nc1c(C)cccc1C,293.15,ethanol,CCO,0.0129,0.22397493073397262,-0.6498005890461411,"N-{3-[(2,6-Dimethylphenyl)amino]-1-methyl-2-buten-1-ylidene}-2,6-dimethylbenzenamine",267431-79-8,1284734,No,10.1016/j.molliq.2021.118055
CC(=CC(C)=Nc1c(C)cccc1C)Nc1c(C)cccc1C,298.15,ethanol,CCO,0.0143,0.24733750810194935,-0.6067100189945231,"N-{3-[(2,6-Dimethylphenyl)amino]-1-methyl-2-buten-1-ylidene}-2,6-dimethylbenzenamine",267431-79-8,1284734,No,10.1016/j.molliq.2021.118055
CC(=CC(C)=Nc1c(C)cccc1C)Nc1c(C)cccc1C,303.15,ethanol,CCO,0.0166,0.28613074234312635,-0.5434354783963586,"N-{3-[(2,6-Dimethylphenyl)amino]-1-methyl-2-buten-1-ylidene}-2,6-dimethylbenzenamine",267431-79-8,1284734,No,10.1016/j.molliq.2021.118055
C=C1CCN([C@H](C)[C@](O)(Cn2cncn2)c2ccc(F)cc2F)CC1,288.15,ethanol,CCO,0.122,2.392731591925769,0.37889398374365413,Efinaconazole,164650-44-6,489181,Yes,10.1016/j.molliq.2021.118148
C=C1CCN([C@H](C)[C@](O)(Cn2cncn2)c2ccc(F)cc2F)CC1,293.15,ethanol,CCO,0.144,2.883099162714684,0.45985957998070726,Efinaconazole,164650-44-6,489181,Yes,10.1016/j.molliq.2021.118148
C=C1CCN([C@H](C)[C@](O)(Cn2cncn2)c2ccc(F)cc2F)CC1,298.15,ethanol,CCO,0.172,3.5415779921799717,0.5491968102175462,Efinaconazole,164650-44-6,489181,Yes,10.1016/j.molliq.2021.118148
C=C1CCN([C@H](C)[C@](O)(Cn2cncn2)c2ccc(F)cc2F)CC1,303.15,ethanol,CCO,0.20299999999999999,4.31742054693858,0.6352243540348297,Efinaconazole,164650-44-6,489181,Yes,10.1016/j.molliq.2021.118148
C=C1CCN([C@H](C)[C@](O)(Cn2cncn2)c2ccc(F)cc2F)CC1,308.15,ethanol,CCO,0.242,5.3805032957618755,0.7308229017535338,Efinaconazole,164650-44-6,489181,Yes,10.1016/j.molliq.2021.118148
COc1ccc2cc([C@H](C)C(=O)O)ccc2c1,293.2,ethanol,CCO,0.010700000000000001,0.18534855780328008,-0.7320107888656775,(S)-Naproxen,22204-53-1,156391,Yes,10.1016/j.molliq.2021.118175
COc1ccc2cc([C@H](C)C(=O)O)ccc2c1,298.2,ethanol,CCO,0.011699999999999999,0.20175315968959287,-0.6951796549949415,(S)-Naproxen,22204-53-1,156391,Yes,10.1016/j.molliq.2021.118175
COc1ccc2cc([C@H](C)C(=O)O)ccc2c1,303.2,ethanol,CCO,0.0129,0.22147679131768078,-0.6546717770289852,(S)-Naproxen,22204-53-1,156391,Yes,10.1016/j.molliq.2021.118175
COc1ccc2cc([C@H](C)C(=O)O)ccc2c1,308.2,ethanol,CCO,0.0139,0.2375506870776342,-0.6242437091151456,(S)-Naproxen,22204-53-1,156391,Yes,10.1016/j.molliq.2021.118175
COc1ccc2cc([C@H](C)C(=O)O)ccc2c1,313.2,ethanol,CCO,0.015300000000000001,0.2603748139070326,-0.5844010274395035,(S)-Naproxen,22204-53-1,156391,Yes,10.1016/j.molliq.2021.118175
O=[N+]([O-])c1cc([N+](=O)[O-])c(-c2nnc(-c3nnc(-c4c([N+](=O)[O-])cc([N+](=O)[O-])cc4[N+](=O)[O-])o3)o2)c([N+](=O)[O-])c1,293.15,ethanol,CCO,0.00010580000000000001,0.0018134369939355062,-2.7414975289511974,"5,5-bis(2,4,6-trinitrophenyl)-2,2-bis(1,3,4-oxadiazole)",,129048596,No,10.1016/j.molliq.2021.118226
O=[N+]([O-])c1cc([N+](=O)[O-])c(-c2nnc(-c3nnc(-c4c([N+](=O)[O-])cc([N+](=O)[O-])cc4[N+](=O)[O-])o3)o2)c([N+](=O)[O-])c1,298.15,ethanol,CCO,0.00013879999999999999,0.0023667285540190665,-2.6258515495283743,"5,5-bis(2,4,6-trinitrophenyl)-2,2-bis(1,3,4-oxadiazole)",,129048596,No,10.1016/j.molliq.2021.118226
O=[N+]([O-])c1cc([N+](=O)[O-])c(-c2nnc(-c3nnc(-c4c([N+](=O)[O-])cc([N+](=O)[O-])cc4[N+](=O)[O-])o3)o2)c([N+](=O)[O-])c1,303.15,ethanol,CCO,0.0001732,0.0029363630572323517,-2.53219024848189,"5,5-bis(2,4,6-trinitrophenyl)-2,2-bis(1,3,4-oxadiazole)",,129048596,No,10.1016/j.molliq.2021.118226
O=[N+]([O-])c1cc([N+](=O)[O-])c(-c2nnc(-c3nnc(-c4c([N+](=O)[O-])cc([N+](=O)[O-])cc4[N+](=O)[O-])o3)o2)c([N+](=O)[O-])c1,308.15,ethanol,CCO,0.00021030000000000002,0.003544927486138069,-2.4503926441740584,"5,5-bis(2,4,6-trinitrophenyl)-2,2-bis(1,3,4-oxadiazole)",,129048596,No,10.1016/j.molliq.2021.118226
O=[N+]([O-])c1cc([N+](=O)[O-])c(-c2nnc(-c3nnc(-c4c([N+](=O)[O-])cc([N+](=O)[O-])cc4[N+](=O)[O-])o3)o2)c([N+](=O)[O-])c1,313.15,ethanol,CCO,0.0002514,0.004214797688658324,-2.375223266782536,"5,5-bis(2,4,6-trinitrophenyl)-2,2-bis(1,3,4-oxadiazole)",,129048596,No,10.1016/j.molliq.2021.118226
O=[N+]([O-])c1cc([N+](=O)[O-])c(-c2nnc(-c3nnc(-c4c([N+](=O)[O-])cc([N+](=O)[O-])cc4[N+](=O)[O-])o3)o2)c([N+](=O)[O-])c1,318.15,ethanol,CCO,0.0002955,0.004925386403081099,-2.3075596928530344,"5,5-bis(2,4,6-trinitrophenyl)-2,2-bis(1,3,4-oxadiazole)",,129048596,No,10.1016/j.molliq.2021.118226
O=[N+]([O-])c1cc([N+](=O)[O-])c(-c2nnc(-c3nnc(-c4c([N+](=O)[O-])cc([N+](=O)[O-])cc4[N+](=O)[O-])o3)o2)c([N+](=O)[O-])c1,323.15,ethanol,CCO,0.00035390000000000004,0.005864943909886006,-2.2317361369574,"5,5-bis(2,4,6-trinitrophenyl)-2,2-bis(1,3,4-oxadiazole)",,129048596,No,10.1016/j.molliq.2021.118226
O=[N+]([O-])c1cc([N+](=O)[O-])c(-c2nnc(-c3nnc(-c4c([N+](=O)[O-])cc([N+](=O)[O-])cc4[N+](=O)[O-])o3)o2)c([N+](=O)[O-])c1,328.15,ethanol,CCO,0.00043550000000000007,0.00717433065512738,-2.1442186111576853,"5,5-bis(2,4,6-trinitrophenyl)-2,2-bis(1,3,4-oxadiazole)",,129048596,No,10.1016/j.molliq.2021.118226
O=[N+]([O-])c1cc([N+](=O)[O-])c(-c2nnc(-c3nnc(-c4c([N+](=O)[O-])cc([N+](=O)[O-])cc4[N+](=O)[O-])o3)o2)c([N+](=O)[O-])c1,333.15,ethanol,CCO,0.0005612,0.009195055422367137,-2.0364456487471996,"5,5-bis(2,4,6-trinitrophenyl)-2,2-bis(1,3,4-oxadiazole)",,129048596,No,10.1016/j.molliq.2021.118226
CCOC(=O)c1c(CSc2ccccc2)n(C)c2cc(Br)c(O)c(CN(C)C)c12.Cl.O,293.15,ethanol,CCO,0.009726,0.16832543332295705,-0.7738502588470842,Arbidol hydrochloride monohydrate,868364-57-2,131410,No,10.1016/j.molliq.2021.118300
CCOC(=O)c1c(CSc2ccccc2)n(C)c2cc(Br)c(O)c(CN(C)C)c12.Cl.O,298.15,ethanol,CCO,0.01161,0.20026385736696914,-0.698397422960139,Arbidol hydrochloride monohydrate,868364-57-2,131410,No,10.1016/j.molliq.2021.118300
CCOC(=O)c1c(CSc2ccccc2)n(C)c2cc(Br)c(O)c(CN(C)C)c12.Cl.O,303.15,ethanol,CCO,0.01322,0.22708986598662317,-0.6438022459840933,Arbidol hydrochloride monohydrate,868364-57-2,131410,No,10.1016/j.molliq.2021.118300
CCOC(=O)c1c(CSc2ccccc2)n(C)c2cc(Br)c(O)c(CN(C)C)c12.Cl.O,308.15,ethanol,CCO,0.01539,0.2634214396634689,-0.5793488810499545,Arbidol hydrochloride monohydrate,868364-57-2,131410,No,10.1016/j.molliq.2021.118300
CCOC(=O)c1c(CSc2ccccc2)n(C)c2cc(Br)c(O)c(CN(C)C)c12.Cl.O,313.15,ethanol,CCO,0.018,0.30722976015919445,-0.5125367181753012,Arbidol hydrochloride monohydrate,868364-57-2,131410,No,10.1016/j.molliq.2021.118300
CCOC(=O)c1c(CSc2ccccc2)n(C)c2cc(Br)c(O)c(CN(C)C)c12.Cl.O,318.15,ethanol,CCO,0.02339,0.3990832716086188,-0.3989364761757125,Arbidol hydrochloride monohydrate,868364-57-2,131410,No,10.1016/j.molliq.2021.118300
CCOC(=O)c1c(CSc2ccccc2)n(C)c2cc(Br)c(O)c(CN(C)C)c12.Cl.O,323.15,ethanol,CCO,0.02941,0.5019827442297801,-0.29931121156930635,Arbidol hydrochloride monohydrate,868364-57-2,131410,No,10.1016/j.molliq.2021.118300
CCOC(=O)c1c(CSc2ccccc2)n(C)c2cc(Br)c(O)c(CN(C)C)c12.Cl.O,328.15,ethanol,CCO,0.03656,0.6248640894803708,-0.20421443322769017,Arbidol hydrochloride monohydrate,868364-57-2,131410,No,10.1016/j.molliq.2021.118300
CCOC(=O)c1c(CSc2ccccc2)n(C)c2cc(Br)c(O)c(CN(C)C)c12.Cl.O,333.15,ethanol,CCO,0.04356,0.7458011260053585,-0.12737696527942513,Arbidol hydrochloride monohydrate,868364-57-2,131410,No,10.1016/j.molliq.2021.118300
NCC(CC(=O)O)c1ccc(Cl)cc1,293.2,ethanol,CCO,3.25e-05,0.0005569688648180609,-3.2541690816945747,Baclofen,1134-47-0,2284,Yes,10.1016/j.molliq.2021.118352
NCC(CC(=O)O)c1ccc(Cl)cc1,298.2,ethanol,CCO,4.17e-05,0.00071068548259104,-3.148322555944934,Baclofen,1134-47-0,2284,Yes,10.1016/j.molliq.2021.118352
NCC(CC(=O)O)c1ccc(Cl)cc1,303.2,ethanol,CCO,4.87e-05,0.0008253720849663942,-3.0833502235493073,Baclofen,1134-47-0,2284,Yes,10.1016/j.molliq.2021.118352
NCC(CC(=O)O)c1ccc(Cl)cc1,308.2,ethanol,CCO,5.3899999999999996e-05,0.0009083947670260758,-3.0417253762777596,Baclofen,1134-47-0,2284,Yes,10.1016/j.molliq.2021.118352
NCC(CC(=O)O)c1ccc(Cl)cc1,313.2,ethanol,CCO,6.0899999999999996e-05,0.0010205991954442134,-2.991144778365414,Baclofen,1134-47-0,2284,Yes,10.1016/j.molliq.2021.118352
O=C(O)CCC(=O)c1ccc(-c2ccccc2)cc1,278.15,ethanol,CCO,0.0005407,0.009425395954312063,-2.025700396330574,Fenbufen,36330-85-5,3335,Yes,10.1016/j.molliq.2021.118415
O=C(O)CCC(=O)c1ccc(-c2ccccc2)cc1,283.15,ethanol,CCO,0.0006762000000000001,0.01171508099887978,-1.9312547043145711,Fenbufen,36330-85-5,3335,Yes,10.1016/j.molliq.2021.118415
O=C(O)CCC(=O)c1ccc(-c2ccccc2)cc1,288.15,ethanol,CCO,0.0008992,0.015498000140001083,-1.8097243395198428,Fenbufen,36330-85-5,3335,Yes,10.1016/j.molliq.2021.118415
O=C(O)CCC(=O)c1ccc(-c2ccccc2)cc1,293.15,ethanol,CCO,0.001181,0.020264409595218982,-1.6932660449335737,Fenbufen,36330-85-5,3335,Yes,10.1016/j.molliq.2021.118415
O=C(O)CCC(=O)c1ccc(-c2ccccc2)cc1,298.15,ethanol,CCO,0.001518,0.02591971557407269,-1.5863697684375737,Fenbufen,36330-85-5,3335,Yes,10.1016/j.molliq.2021.118415
O=C(O)CCC(=O)c1ccc(-c2ccccc2)cc1,303.15,ethanol,CCO,0.0019479999999999999,0.03308433584619278,-1.4803775792077434,Fenbufen,36330-85-5,3335,Yes,10.1016/j.molliq.2021.118415
O=C(O)CCC(=O)c1ccc(-c2ccccc2)cc1,308.15,ethanol,CCO,0.002484,0.04196705194835274,-1.377091537520247,Fenbufen,36330-85-5,3335,Yes,10.1016/j.molliq.2021.118415
O=C(O)CCC(=O)c1ccc(-c2ccccc2)cc1,313.15,ethanol,CCO,0.003124,0.05252573633720921,-1.2796278506793581,Fenbufen,36330-85-5,3335,Yes,10.1016/j.molliq.2021.118415
O=C(O)CCC(=O)c1ccc(-c2ccccc2)cc1,318.15,ethanol,CCO,0.003846,0.06433351277840466,-1.1915627343352733,Fenbufen,36330-85-5,3335,Yes,10.1016/j.molliq.2021.118415
CCS(=O)(=O)O.COC(=O)c1ccc2c(C(=Nc3ccc(N(C)C(=O)CN4CCN(C)CC4)cc3)c3ccccc3)c(O)[nH]c2c1,278.15,ethanol,CCO,0.00015012,0.0026158455895101238,-2.582387895517071,Nintedanib esylate hemihydrate,656247-18-6,135476717,No,10.1016/j.molliq.2022.118624
CCS(=O)(=O)O.COC(=O)c1ccc2c(C(=Nc3ccc(N(C)C(=O)CN4CCN(C)CC4)cc3)c3ccccc3)c(O)[nH]c2c1,283.15,ethanol,CCO,0.00017921999999999998,0.0031034208546180044,-2.50815932578719,Nintedanib esylate hemihydrate,656247-18-6,135476717,No,10.1016/j.molliq.2022.118624
CCS(=O)(=O)O.COC(=O)c1ccc2c(C(=Nc3ccc(N(C)C(=O)CN4CCN(C)CC4)cc3)c3ccccc3)c(O)[nH]c2c1,288.15,ethanol,CCO,0.00021365000000000002,0.003679801253897877,-2.4341756369423324,Nintedanib esylate hemihydrate,656247-18-6,135476717,No,10.1016/j.molliq.2022.118624
CCS(=O)(=O)O.COC(=O)c1ccc2c(C(=Nc3ccc(N(C)C(=O)CN4CCN(C)CC4)cc3)c3ccccc3)c(O)[nH]c2c1,293.15,ethanol,CCO,0.00025307000000000004,0.004338318556420294,-2.3626785615389614,Nintedanib esylate hemihydrate,656247-18-6,135476717,No,10.1016/j.molliq.2022.118624
CCS(=O)(=O)O.COC(=O)c1ccc2c(C(=Nc3ccc(N(C)C(=O)CN4CCN(C)CC4)cc3)c3ccccc3)c(O)[nH]c2c1,298.15,ethanol,CCO,0.00029816,0.005084843471085496,-2.293722411608521,Nintedanib esylate hemihydrate,656247-18-6,135476717,No,10.1016/j.molliq.2022.118624
CCS(=O)(=O)O.COC(=O)c1ccc2c(C(=Nc3ccc(N(C)C(=O)CN4CCN(C)CC4)cc3)c3ccccc3)c(O)[nH]c2c1,303.15,ethanol,CCO,0.00034978,0.0059310767643942774,-2.22686645496901,Nintedanib esylate hemihydrate,656247-18-6,135476717,No,10.1016/j.molliq.2022.118624
CCS(=O)(=O)O.COC(=O)c1ccc2c(C(=Nc3ccc(N(C)C(=O)CN4CCN(C)CC4)cc3)c3ccccc3)c(O)[nH]c2c1,308.15,ethanol,CCO,0.00039989,0.0067420348033313884,-2.1712090099200956,Nintedanib esylate hemihydrate,656247-18-6,135476717,No,10.1016/j.molliq.2022.118624
CCS(=O)(=O)O.COC(=O)c1ccc2c(C(=Nc3ccc(N(C)C(=O)CN4CCN(C)CC4)cc3)c3ccccc3)c(O)[nH]c2c1,313.15,ethanol,CCO,0.00047301,0.00793191517372679,-2.1006219389169822,Nintedanib esylate hemihydrate,656247-18-6,135476717,No,10.1016/j.molliq.2022.118624
CCS(=O)(=O)O.COC(=O)c1ccc2c(C(=Nc3ccc(N(C)C(=O)CN4CCN(C)CC4)cc3)c3ccccc3)c(O)[nH]c2c1,318.15,ethanol,CCO,0.00054581,0.009099825498540744,-2.0409669357830245,Nintedanib esylate hemihydrate,656247-18-6,135476717,No,10.1016/j.molliq.2022.118624
CCS(=O)(=O)O.COC(=O)c1ccc2c(C(=Nc3ccc(N(C)C(=O)CN4CCN(C)CC4)cc3)c3ccccc3)c(O)[nH]c2c1,323.15,ethanol,CCO,0.00062725,0.01039783072846463,-1.9830572569439988,Nintedanib esylate hemihydrate,656247-18-6,135476717,No,10.1016/j.molliq.2022.118624
COc1c2occc2c(OC)c2c(=O)cc(C)oc12,298.15,ethanol,CCO,0.0025499999999999997,0.04358607339814662,-1.3606522541373798,Khellin,82-02-0,3828,No,10.1016/j.molliq.2022.118637
COc1c2occc2c(OC)c2c(=O)cc(C)oc12,303.15,ethanol,CCO,0.00282,0.047936043564360535,-1.3193378136288796,Khellin,82-02-0,3828,No,10.1016/j.molliq.2022.118637
COc1c2occc2c(OC)c2c(=O)cc(C)oc12,308.15,ethanol,CCO,0.00298,0.05037199310390731,-1.2978108647685782,Khellin,82-02-0,3828,No,10.1016/j.molliq.2022.118637
COc1c2occc2c(OC)c2c(=O)cc(C)oc12,313.15,ethanol,CCO,0.00311,0.05228961136475456,-1.28158458599153,Khellin,82-02-0,3828,No,10.1016/j.molliq.2022.118637
COc1c2occc2c(OC)c2c(=O)cc(C)oc12,318.15,ethanol,CCO,0.0033799999999999998,0.05651211625150395,-1.247858429047145,Khellin,82-02-0,3828,No,10.1016/j.molliq.2022.118637
COc1c2occc2c(OC)c2c(=O)cc(C)oc12,323.15,ethanol,CCO,0.0033799999999999998,0.05618452044961613,-1.2503833216074767,Khellin,82-02-0,3828,No,10.1016/j.molliq.2022.118637
O=c1[nH]cc(F)c(=O)[nH]1,283.15,ethanol,CCO,0.002022,0.035078138919641816,-1.4549634563085827,5-fluorouracil,51-21-8,3385,Yes,10.1016/j.molliq.2022.118733
O=c1[nH]cc(F)c(=O)[nH]1,288.15,ethanol,CCO,0.002235,0.038572512719893655,-1.41372206907174,5-fluorouracil,51-21-8,3385,Yes,10.1016/j.molliq.2022.118733
O=c1[nH]cc(F)c(=O)[nH]1,293.15,ethanol,CCO,0.0024519999999999998,0.04212670739355541,-1.3754424838280797,5-fluorouracil,51-21-8,3385,Yes,10.1016/j.molliq.2022.118733
O=c1[nH]cc(F)c(=O)[nH]1,298.15,ethanol,CCO,0.0026850000000000003,0.045899783713775386,-1.3381893609144855,5-fluorouracil,51-21-8,3385,Yes,10.1016/j.molliq.2022.118733
O=c1[nH]cc(F)c(=O)[nH]1,303.15,ethanol,CCO,0.00301,0.05117552784368261,-1.29093766916538,5-fluorouracil,51-21-8,3385,Yes,10.1016/j.molliq.2022.118733
O=c1[nH]cc(F)c(=O)[nH]1,308.15,ethanol,CCO,0.003315,0.05605345052108718,-1.2513976480798288,5-fluorouracil,51-21-8,3385,Yes,10.1016/j.molliq.2022.118733
O=c1[nH]cc(F)c(=O)[nH]1,313.15,ethanol,CCO,0.003691,0.06209437444396881,-1.20694774376238,5-fluorouracil,51-21-8,3385,Yes,10.1016/j.molliq.2022.118733
O=c1[nH]cc(F)c(=O)[nH]1,318.15,ethanol,CCO,0.004025,0.06733981459598547,-1.1717280836718875,5-fluorouracil,51-21-8,3385,Yes,10.1016/j.molliq.2022.118733
O=c1[nH]cc(F)c(=O)[nH]1,323.15,ethanol,CCO,0.00451,0.07505320047703273,-1.1246307835022737,5-fluorouracil,51-21-8,3385,Yes,10.1016/j.molliq.2022.118733
CC(=O)c1cccc(O)c1,289.15,ethanol,CCO,0.1656,3.4163468344471895,0.5335619547102477,m-hydroxyacetophenone (m-HAP),121-71-1,8487,No,10.1016/j.molliq.2022.118798
CC(=O)c1cccc(O)c1,292.15,ethanol,CCO,0.1746,3.6292564461150545,0.5598176568744955,m-hydroxyacetophenone (m-HAP),121-71-1,8487,No,10.1016/j.molliq.2022.118798
CC(=O)c1cccc(O)c1,295.15,ethanol,CCO,0.18989999999999999,4.0084955105571956,0.6029814015316786,m-hydroxyacetophenone (m-HAP),121-71-1,8487,No,10.1016/j.molliq.2022.118798
CC(=O)c1cccc(O)c1,298.15,ethanol,CCO,0.2094,4.515632264380736,0.6547185674307491,m-hydroxyacetophenone (m-HAP),121-71-1,8487,No,10.1016/j.molliq.2022.118798
CC(=O)c1cccc(O)c1,301.15,ethanol,CCO,0.22510000000000002,4.934291663716648,0.6932248168600399,m-hydroxyacetophenone (m-HAP),121-71-1,8487,No,10.1016/j.molliq.2022.118798
CC(=O)c1cccc(O)c1,304.15,ethanol,CCO,0.24489999999999998,5.490627233172019,0.7396219598135837,m-hydroxyacetophenone (m-HAP),121-71-1,8487,No,10.1016/j.molliq.2022.118798
CC(=O)c1cccc(O)c1,307.15,ethanol,CCO,0.263,6.020931149773241,0.7796636610147345,m-hydroxyacetophenone (m-HAP),121-71-1,8487,No,10.1016/j.molliq.2022.118798
CC(=O)c1cccc(O)c1,310.15,ethanol,CCO,0.2871,6.771935198902529,0.8307127936640533,m-hydroxyacetophenone (m-HAP),121-71-1,8487,No,10.1016/j.molliq.2022.118798
CC(=O)c1cccc(O)c1,313.15,ethanol,CCO,0.3079,7.45663876256335,0.8725431041707847,m-hydroxyacetophenone (m-HAP),121-71-1,8487,No,10.1016/j.molliq.2022.118798
CC(=O)c1cccc(O)c1,316.15,ethanol,CCO,0.3346,8.398505923713891,0.9242020328714781,m-hydroxyacetophenone (m-HAP),121-71-1,8487,No,10.1016/j.molliq.2022.118798
CC(=O)c1cccc(O)c1,319.15,ethanol,CCO,0.3607,9.39113587284134,0.9727181240523756,m-hydroxyacetophenone (m-HAP),121-71-1,8487,No,10.1016/j.molliq.2022.118798
CC(=O)c1cccc(O)c1,322.15,ethanol,CCO,0.3911,10.65445514822322,1.0275312454936418,m-hydroxyacetophenone (m-HAP),121-71-1,8487,No,10.1016/j.molliq.2022.118798
CC(=O)c1cccc(O)c1,325.15,ethanol,CCO,0.42,11.970665821505523,1.0781183070115787,m-hydroxyacetophenone (m-HAP),121-71-1,8487,No,10.1016/j.molliq.2022.118798
Cc1cnc(NC(=O)C2=C(O)c3ccccc3S(=O)(=O)N2C)s1,288.15,ethanol,CCO,2.2000000000000003e-05,0.0003788444282629804,-3.4215390956190825,Meloxicam,71125-38-7,54677470,Yes,10.1016/j.molliq.2022.118863
Cc1cnc(NC(=O)C2=C(O)c3ccccc3S(=O)(=O)N2C)s1,293.15,ethanol,CCO,2.55e-05,0.0004370409259584462,-3.359477892352943,Meloxicam,71125-38-7,54677470,Yes,10.1016/j.molliq.2022.118863
Cc1cnc(NC(=O)C2=C(O)c3ccccc3S(=O)(=O)N2C)s1,298.15,ethanol,CCO,3.2e-05,0.000545585194079702,-3.2631374239394324,Meloxicam,71125-38-7,54677470,Yes,10.1016/j.molliq.2022.118863
Cc1cnc(NC(=O)C2=C(O)c3ccccc3S(=O)(=O)N2C)s1,303.15,ethanol,CCO,3.9500000000000005e-05,0.0006695775564339072,-3.174199111884963,Meloxicam,71125-38-7,54677470,Yes,10.1016/j.molliq.2022.118863
Cc1cnc(NC(=O)C2=C(O)c3ccccc3S(=O)(=O)N2C)s1,308.15,ethanol,CCO,5.3e-05,0.0008932553565997576,-3.0490243707765257,Meloxicam,71125-38-7,54677470,Yes,10.1016/j.molliq.2022.118863