SMILES_Solute,Temperature_K,Solvent,SMILES_Solvent,Solubility(mole_fraction),Solubility(mol/L),LogS(mol/L),Compound_Name,CAS,PubChem_CID,FDA_Approved,Source
CNCCC(Oc1ccc(C(F)(F)F)cc1)c1ccccc1.Cl,288.15,ethanol,CCO,0.0159,0.27821885662027984,-0.5556134385114495,Fluoxetine hydrochloride,56296-78-7,62857,Yes,10.1021/acs.jced.0c00513
CNCCC(Oc1ccc(C(F)(F)F)cc1)c1ccccc1.Cl,293.15,ethanol,CCO,0.01985,0.3470873770255037,-0.45956118058918966,Fluoxetine hydrochloride,56296-78-7,62857,Yes,10.1021/acs.jced.0c00513
CNCCC(Oc1ccc(C(F)(F)F)cc1)c1ccccc1.Cl,298.15,ethanol,CCO,0.02485,0.4344638716971191,-0.3620463319309334,Fluoxetine hydrochloride,56296-78-7,62857,Yes,10.1021/acs.jced.0c00513
CNCCC(Oc1ccc(C(F)(F)F)cc1)c1ccccc1.Cl,303.15,ethanol,CCO,0.03061,0.5352435368024417,-0.2714485682147144,Fluoxetine hydrochloride,56296-78-7,62857,Yes,10.1021/acs.jced.0c00513
CNCCC(Oc1ccc(C(F)(F)F)cc1)c1ccccc1.Cl,308.15,ethanol,CCO,0.03826,0.6704463454438461,-0.17363597218977886,Fluoxetine hydrochloride,56296-78-7,62857,Yes,10.1021/acs.jced.0c00513
CNCCC(Oc1ccc(C(F)(F)F)cc1)c1ccccc1.Cl,313.15,ethanol,CCO,0.04837,0.8519423886688007,-0.06958977275582985,Fluoxetine hydrochloride,56296-78-7,62857,Yes,10.1021/acs.jced.0c00513
CNCCC(Oc1ccc(C(F)(F)F)cc1)c1ccccc1.Cl,318.15,ethanol,CCO,0.05965,1.0570009753575738,0.02407538805692175,Fluoxetine hydrochloride,56296-78-7,62857,Yes,10.1021/acs.jced.0c00513
O=C(O)Cc1ccccc1[N+](=O)[O-],283.15,ethanol,CCO,0.02728,0.4855487948487556,-0.3137671194764276,2-nitrophenylacetic acid,3740-52-1,77337,No,10.1021/acs.jced.0c00543
O=C(O)Cc1ccccc1[N+](=O)[O-],288.15,ethanol,CCO,0.03171,0.5639225537601463,-0.24878053570477873,2-nitrophenylacetic acid,3740-52-1,77337,No,10.1021/acs.jced.0c00543
O=C(O)Cc1ccccc1[N+](=O)[O-],293.15,ethanol,CCO,0.03675,0.6538666368246858,-0.18451082170221403,2-nitrophenylacetic acid,3740-52-1,77337,No,10.1021/acs.jced.0c00543
O=C(O)Cc1ccccc1[N+](=O)[O-],298.15,ethanol,CCO,0.04316,0.7690256292149382,-0.1140591862829036,2-nitrophenylacetic acid,3740-52-1,77337,No,10.1021/acs.jced.0c00543
O=C(O)Cc1ccccc1[N+](=O)[O-],303.15,ethanol,CCO,0.05158,0.9218648832569151,-0.03533272835644664,2-nitrophenylacetic acid,3740-52-1,77337,No,10.1021/acs.jced.0c00543
O=C(O)Cc1ccccc1[N+](=O)[O-],308.15,ethanol,CCO,0.06266,1.1266006084936184,0.051769981468255635,2-nitrophenylacetic acid,3740-52-1,77337,No,10.1021/acs.jced.0c00543
O=C(O)Cc1ccccc1[N+](=O)[O-],313.15,ethanol,CCO,0.07432,1.3456963824240178,0.12894708491627985,2-nitrophenylacetic acid,3740-52-1,77337,No,10.1021/acs.jced.0c00543
O=C(O)Cc1ccccc1[N+](=O)[O-],318.15,ethanol,CCO,0.08781,1.604032410286867,0.20521313917666084,2-nitrophenylacetic acid,3740-52-1,77337,No,10.1021/acs.jced.0c00543
O=C(O)Cc1ccccc1[N+](=O)[O-],323.15,ethanol,CCO,0.1038,1.9187658941228283,0.28302199032028424,2-nitrophenylacetic acid,3740-52-1,77337,No,10.1021/acs.jced.0c00543
O=C(O)Cc1ccccc1[N+](=O)[O-],328.15,ethanol,CCO,0.1229,2.3073146571874332,0.36310682493364993,2-nitrophenylacetic acid,3740-52-1,77337,No,10.1021/acs.jced.0c00543
O=[N+]([O-])N=C1NCCN1Cc1ccc(Cl)nc1,293.15,ethanol,CCO,0.0006,0.01028922721667905,-1.9876172421603135,Imidacloprid,138261-41-3,135527764,No,10.1021/acs.jced.0c00558
O=[N+]([O-])N=C1NCCN1Cc1ccc(Cl)nc1,298.15,ethanol,CCO,0.0008,0.01365011347461698,-1.864863738279258,Imidacloprid,138261-41-3,135527764,No,10.1021/acs.jced.0c00558
O=[N+]([O-])N=C1NCCN1Cc1ccc(Cl)nc1,303.15,ethanol,CCO,0.0009,0.015269337272111617,-1.816179812014363,Imidacloprid,138261-41-3,135527764,No,10.1021/acs.jced.0c00558
O=[N+]([O-])N=C1NCCN1Cc1ccc(Cl)nc1,308.15,ethanol,CCO,0.0012,0.020247875127115355,-1.6936205462265292,Imidacloprid,138261-41-3,135527764,No,10.1021/acs.jced.0c00558
O=[N+]([O-])N=C1NCCN1Cc1ccc(Cl)nc1,313.15,ethanol,CCO,0.0015,0.025179404479747033,-1.5989545456426977,Imidacloprid,138261-41-3,135527764,No,10.1021/acs.jced.0c00558
O=[N+]([O-])N=C1NCCN1Cc1ccc(Cl)nc1,318.15,ethanol,CCO,0.0019,0.031720061035283714,-1.4986659856904547,Imidacloprid,138261-41-3,135527764,No,10.1021/acs.jced.0c00558
O=[N+]([O-])N=C1NCCN1Cc1ccc(Cl)nc1,323.15,ethanol,CCO,0.0025,0.04151993650583294,-1.3817433193018787,Imidacloprid,138261-41-3,135527764,No,10.1021/acs.jced.0c00558
O=[N+]([O-])N=C1NCCN1Cc1ccc(Cl)nc1,328.15,ethanol,CCO,0.003,0.0495484586995918,-1.3049698505363907,Imidacloprid,138261-41-3,135527764,No,10.1021/acs.jced.0c00558
O=[N+]([O-])N=C1NCCN1Cc1ccc(Cl)nc1,333.15,ethanol,CCO,0.0036,0.059164565075309546,-1.2279383236790788,Imidacloprid,138261-41-3,135527764,No,10.1021/acs.jced.0c00558
O=C1OC(=O)C2C3C=CC(O3)C12,278.15,ethanol,CCO,0.000635,0.011070262968431091,-1.9558420625555972,"Exo-3,6-epoxy-1,2,3,6-tetrahydrophthalic anhydride",5426-09-5,98484,No,10.1021/acs.jced.0c00569
O=C1OC(=O)C2C3C=CC(O3)C12,283.15,ethanol,CCO,0.00076,0.01316800981470309,-1.8804798584327012,"Exo-3,6-epoxy-1,2,3,6-tetrahydrophthalic anhydride",5426-09-5,98484,No,10.1021/acs.jced.0c00569
O=C1OC(=O)C2C3C=CC(O3)C12,288.15,ethanol,CCO,0.00091,0.01568431114377075,-1.8045345507965709,"Exo-3,6-epoxy-1,2,3,6-tetrahydrophthalic anhydride",5426-09-5,98484,No,10.1021/acs.jced.0c00569
O=C1OC(=O)C2C3C=CC(O3)C12,293.15,ethanol,CCO,0.001017,0.01744752011614975,-1.7582662922811558,"Exo-3,6-epoxy-1,2,3,6-tetrahydrophthalic anhydride",5426-09-5,98484,No,10.1021/acs.jced.0c00569
O=C1OC(=O)C2C3C=CC(O3)C12,298.15,ethanol,CCO,0.001237,0.02111572291900922,-1.675394045455643,"Exo-3,6-epoxy-1,2,3,6-tetrahydrophthalic anhydride",5426-09-5,98484,No,10.1021/acs.jced.0c00569
O=C1OC(=O)C2C3C=CC(O3)C12,303.15,ethanol,CCO,0.001452,0.02464814883339372,-1.6082156922744302,"Exo-3,6-epoxy-1,2,3,6-tetrahydrophthalic anhydride",5426-09-5,98484,No,10.1021/acs.jced.0c00569
O=C1OC(=O)C2C3C=CC(O3)C12,308.15,ethanol,CCO,0.001695,0.028614304715202248,-1.543416802333595,"Exo-3,6-epoxy-1,2,3,6-tetrahydrophthalic anhydride",5426-09-5,98484,No,10.1021/acs.jced.0c00569
O=C1OC(=O)C2C3C=CC(O3)C12,313.15,ethanol,CCO,0.002022,0.03395959077538878,-1.4690375517926706,"Exo-3,6-epoxy-1,2,3,6-tetrahydrophthalic anhydride",5426-09-5,98484,No,10.1021/acs.jced.0c00569
O=C1OC(=O)C2C3C=CC(O3)C12,318.15,ethanol,CCO,0.002385,0.039836381407852596,-1.3997201181895025,"Exo-3,6-epoxy-1,2,3,6-tetrahydrophthalic anhydride",5426-09-5,98484,No,10.1021/acs.jced.0c00569
O=C1OC(=O)C2C3C=CC(O3)C12,323.15,ethanol,CCO,0.002924,0.048582368287752545,-1.3135213180769434,"Exo-3,6-epoxy-1,2,3,6-tetrahydrophthalic anhydride",5426-09-5,98484,No,10.1021/acs.jced.0c00569
C=CC(=O)NC(C)(C)CS(=O)(=O)O,283.15,ethanol,CCO,0.007207,0.12568173740124935,-0.900727824319451,2-acrylamide-2-methylpropanesulfonic acid,15214-89-8,65360,No,10.1021/acs.jced.0c00578
C=CC(=O)NC(C)(C)CS(=O)(=O)O,288.15,ethanol,CCO,0.007943,0.13787216827553953,-0.8605233943337053,2-acrylamide-2-methylpropanesulfonic acid,15214-89-8,65360,No,10.1021/acs.jced.0c00578
C=CC(=O)NC(C)(C)CS(=O)(=O)O,293.15,ethanol,CCO,0.008929,0.15440768339139607,-0.8113310927861467,2-acrylamide-2-methylpropanesulfonic acid,15214-89-8,65360,No,10.1021/acs.jced.0c00578
C=CC(=O)NC(C)(C)CS(=O)(=O)O,298.15,ethanol,CCO,0.01023,0.17621385311316695,-0.7539599523705576,2-acrylamide-2-methylpropanesulfonic acid,15214-89-8,65360,No,10.1021/acs.jced.0c00578
C=CC(=O)NC(C)(C)CS(=O)(=O)O,303.15,ethanol,CCO,0.01184,0.20310053617478716,-0.6922889300789745,2-acrylamide-2-methylpropanesulfonic acid,15214-89-8,65360,No,10.1021/acs.jced.0c00578
C=CC(=O)NC(C)(C)CS(=O)(=O)O,308.15,ethanol,CCO,0.01377,0.23530571351829524,-0.6283675274804067,2-acrylamide-2-methylpropanesulfonic acid,15214-89-8,65360,No,10.1021/acs.jced.0c00578
C=CC(=O)NC(C)(C)CS(=O)(=O)O,313.15,ethanol,CCO,0.01608,0.2739230132519451,-0.5623714795807205,2-acrylamide-2-methylpropanesulfonic acid,15214-89-8,65360,No,10.1021/acs.jced.0c00578
C=CC(=O)NC(C)(C)CS(=O)(=O)O,318.15,ethanol,CCO,0.01892,0.321344727525558,-0.49302882139646614,2-acrylamide-2-methylpropanesulfonic acid,15214-89-8,65360,No,10.1021/acs.jced.0c00578
C=CC(=O)NC(C)(C)CS(=O)(=O)O,323.15,ethanol,CCO,0.02248,0.38097829291247104,-0.4190997685157107,2-acrylamide-2-methylpropanesulfonic acid,15214-89-8,65360,No,10.1021/acs.jced.0c00578
C=CC(=O)NC(C)(C)CS(=O)(=O)O,328.15,ethanol,CCO,0.02643,0.4470272865638562,-0.3496659667060257,2-acrylamide-2-methylpropanesulfonic acid,15214-89-8,65360,No,10.1021/acs.jced.0c00578
CCCOC(=O)c1ccc(O)cc1,283.15,ethanol,CCO,0.1022,1.9708231486972954,0.29464765472549004,Propylparaben,94-13-3,7175,No,10.1021/acs.jced.0c00584
CCCOC(=O)c1ccc(O)cc1,288.15,ethanol,CCO,0.1142,2.2200312967677283,0.3463590969360976,Propylparaben,94-13-3,7175,No,10.1021/acs.jced.0c00584
CCCOC(=O)c1ccc(O)cc1,293.15,ethanol,CCO,0.1391,2.7691423063781153,0.44234527473679924,Propylparaben,94-13-3,7175,No,10.1021/acs.jced.0c00584
CCCOC(=O)c1ccc(O)cc1,298.15,ethanol,CCO,0.1666,3.4081617736790437,0.5325202010443869,Propylparaben,94-13-3,7175,No,10.1021/acs.jced.0c00584
CCCOC(=O)c1ccc(O)cc1,303.15,ethanol,CCO,0.1988,4.205930354289487,0.623862076957485,Propylparaben,94-13-3,7175,No,10.1021/acs.jced.0c00584
CCCOC(=O)c1ccc(O)cc1,308.15,ethanol,CCO,0.2344,5.159794722527086,0.712632423982422,Propylparaben,94-13-3,7175,No,10.1021/acs.jced.0c00584
CCCOC(=O)c1ccc(O)cc1,313.15,ethanol,CCO,0.2753,6.367225259366585,0.8039502145833943,Propylparaben,94-13-3,7175,No,10.1021/acs.jced.0c00584
CCCOC(=O)c1ccc(O)cc1,318.15,ethanol,CCO,0.3245,8.00467708311057,0.9033438167235399,Propylparaben,94-13-3,7175,No,10.1021/acs.jced.0c00584
CCCOC(=O)c1ccc(O)cc1,323.15,ethanol,CCO,0.3896,10.573870802435016,1.0242339996446235,Propylparaben,94-13-3,7175,No,10.1021/acs.jced.0c00584
O=C1CC[C@@H](C(=O)N2CSC[C@H]2C(=O)O)N1,278.15,ethanol,CCO,8.3e-05,0.001446180455292796,-2.8397775121257802,Pidotimod,121808-62-6,65944,No,10.1021/acs.jced.0c00616
O=C1CC[C@@H](C(=O)N2CSC[C@H]2C(=O)O)N1,283.15,ethanol,CCO,0.000128,0.002216368263936759,-2.654358077107974,Pidotimod,121808-62-6,65944,No,10.1021/acs.jced.0c00616
O=C1CC[C@@H](C(=O)N2CSC[C@H]2C(=O)O)N1,288.15,ethanol,CCO,0.000198,0.0034102000627824584,-2.4672201419418793,Pidotimod,121808-62-6,65944,No,10.1021/acs.jced.0c00616
O=C1CC[C@@H](C(=O)N2CSC[C@H]2C(=O)O)N1,293.15,ethanol,CCO,0.000303,0.005194516046938489,-2.2844549077669685,Pidotimod,121808-62-6,65944,No,10.1021/acs.jced.0c00616
O=C1CC[C@@H](C(=O)N2CSC[C@H]2C(=O)O)N1,298.15,ethanol,CCO,0.00045,0.007675500253522558,-2.1148933096274103,Pidotimod,121808-62-6,65944,No,10.1021/acs.jced.0c00616
O=C1CC[C@@H](C(=O)N2CSC[C@H]2C(=O)O)N1,303.15,ethanol,CCO,0.000679,0.011517319054923626,-1.9386486020894345,Pidotimod,121808-62-6,65944,No,10.1021/acs.jced.0c00616
O=C1CC[C@@H](C(=O)N2CSC[C@H]2C(=O)O)N1,308.15,ethanol,CCO,0.000986,0.016633440229971198,-1.779017918045925,Pidotimod,121808-62-6,65944,No,10.1021/acs.jced.0c00616
O=C1CC[C@@H](C(=O)N2CSC[C@H]2C(=O)O)N1,313.15,ethanol,CCO,0.001444,0.02423801401133342,-1.6155029678082893,Pidotimod,121808-62-6,65944,No,10.1021/acs.jced.0c00616
O=C1CC[C@@H](C(=O)N2CSC[C@H]2C(=O)O)N1,318.15,ethanol,CCO,0.00208,0.034731382998836886,-1.4592779227990937,Pidotimod,121808-62-6,65944,No,10.1021/acs.jced.0c00616
O=C1CC[C@@H](C(=O)N2CSC[C@H]2C(=O)O)N1,323.15,ethanol,CCO,0.002918,0.04848238631816059,-1.314416012205968,Pidotimod,121808-62-6,65944,No,10.1021/acs.jced.0c00616
O=C(Nc1ccc(F)cc1F)c1cccnc1Oc1cccc(C(F)(F)F)c1,278.15,ethanol,CCO,0.0002436,0.004245134342146658,-2.372108561455414,Diflufenican,83164-33-4,91735,No,10.1021/acs.jced.0c00631
O=C(Nc1ccc(F)cc1F)c1cccnc1Oc1cccc(C(F)(F)F)c1,283.15,ethanol,CCO,0.0003188,0.005521195786381645,-2.257966852128552,Diflufenican,83164-33-4,91735,No,10.1021/acs.jced.0c00631
O=C(Nc1ccc(F)cc1F)c1cccnc1Oc1cccc(C(F)(F)F)c1,288.15,ethanol,CCO,0.0004255,0.007330153428611382,-2.134886934976617,Diflufenican,83164-33-4,91735,No,10.1021/acs.jced.0c00631
O=C(Nc1ccc(F)cc1F)c1cccnc1Oc1cccc(C(F)(F)F)c1,293.15,ethanol,CCO,0.0005372,0.009211709258686274,-2.0356597777573966,Diflufenican,83164-33-4,91735,No,10.1021/acs.jced.0c00631
O=C(Nc1ccc(F)cc1F)c1cccnc1Oc1cccc(C(F)(F)F)c1,298.15,ethanol,CCO,0.0006827,0.011647298264457288,-1.9337748029567314,Diflufenican,83164-33-4,91735,No,10.1021/acs.jced.0c00631
O=C(Nc1ccc(F)cc1F)c1cccnc1Oc1cccc(C(F)(F)F)c1,303.15,ethanol,CCO,0.0009012,0.0152897147526599,-1.8156006167787426,Diflufenican,83164-33-4,91735,No,10.1021/acs.jced.0c00631
O=C(Nc1ccc(F)cc1F)c1cccnc1Oc1cccc(C(F)(F)F)c1,308.15,ethanol,CCO,0.001112,0.018761377966284052,-1.7267352671735878,Diflufenican,83164-33-4,91735,No,10.1021/acs.jced.0c00631
O=C(Nc1ccc(F)cc1F)c1cccnc1Oc1cccc(C(F)(F)F)c1,313.15,ethanol,CCO,0.00142,0.023834593275583946,-1.6227922546736564,Diflufenican,83164-33-4,91735,No,10.1021/acs.jced.0c00631
O=C(Nc1ccc(F)cc1F)c1cccnc1Oc1cccc(C(F)(F)F)c1,318.15,ethanol,CCO,0.001755,0.029295063664837452,-1.5332055538347353,Diflufenican,83164-33-4,91735,No,10.1021/acs.jced.0c00631
O=C(Nc1ccc(F)cc1F)c1cccnc1Oc1cccc(C(F)(F)F)c1,323.15,ethanol,CCO,0.002158,0.0358277254002692,-1.4457807630722015,Diflufenican,83164-33-4,91735,No,10.1021/acs.jced.0c00631
CCS(=O)(=O)c1cccnc1S(=O)(=O)NC(=O)Nc1nc(OC)cc(OC)n1,278.15,ethanol,CCO,1.907e-05,0.00033225178487945547,-3.4785326773191168,Rimsulfuron,122931-48-0,91779,No,10.1021/acs.jced.0c00632
CCS(=O)(=O)c1cccnc1S(=O)(=O)NC(=O)Nc1nc(OC)cc(OC)n1,283.15,ethanol,CCO,2.325e-05,0.00040254034519252713,-3.3951905853175095,Rimsulfuron,122931-48-0,91779,No,10.1021/acs.jced.0c00632
CCS(=O)(=O)c1cccnc1S(=O)(=O)NC(=O)Nc1nc(OC)cc(OC)n1,288.15,ethanol,CCO,2.822e-05,0.0004859571029733761,-3.3134020656434506,Rimsulfuron,122931-48-0,91779,No,10.1021/acs.jced.0c00632
CCS(=O)(=O)c1cccnc1S(=O)(=O)NC(=O)Nc1nc(OC)cc(OC)n1,293.15,ethanol,CCO,3.399e-05,0.0005825547920291543,-3.234663220934009,Rimsulfuron,122931-48-0,91779,No,10.1021/acs.jced.0c00632
CCS(=O)(=O)c1cccnc1S(=O)(=O)NC(=O)Nc1nc(OC)cc(OC)n1,298.15,ethanol,CCO,4.032e-05,0.0006874430642497497,-3.162763265361117,Rimsulfuron,122931-48-0,91779,No,10.1021/acs.jced.0c00632
CCS(=O)(=O)c1cccnc1S(=O)(=O)NC(=O)Nc1nc(OC)cc(OC)n1,303.15,ethanol,CCO,4.764e-05,0.0008075679609137893,-3.092820919389567,Rimsulfuron,122931-48-0,91779,No,10.1021/acs.jced.0c00632
CCS(=O)(=O)c1cccnc1S(=O)(=O)NC(=O)Nc1nc(OC)cc(OC)n1,308.15,ethanol,CCO,5.523e-05,0.0009308415729622883,-3.031124228624531,Rimsulfuron,122931-48-0,91779,No,10.1021/acs.jced.0c00632
CCS(=O)(=O)c1cccnc1S(=O)(=O)NC(=O)Nc1nc(OC)cc(OC)n1,313.15,ethanol,CCO,6.363e-05,0.001066576038757169,-2.9720081772183318,Rimsulfuron,122931-48-0,91779,No,10.1021/acs.jced.0c00632
CCS(=O)(=O)c1cccnc1S(=O)(=O)NC(=O)Nc1nc(OC)cc(OC)n1,318.15,ethanol,CCO,7.341e-05,0.0012233242243402758,-2.9124584242551608,Rimsulfuron,122931-48-0,91779,No,10.1021/acs.jced.0c00632
CCS(=O)(=O)c1cccnc1S(=O)(=O)NC(=O)Nc1nc(OC)cc(OC)n1,323.15,ethanol,CCO,8.497e-05,0.0014077712712802699,-2.851467901792067,Rimsulfuron,122931-48-0,91779,No,10.1021/acs.jced.0c00632
COC(=O)c1c(Cl)nn(C)c1S(=O)(=O)NC(=O)Nc1nc(OC)cc(OC)n1,278.15,ethanol,CCO,3.563e-05,0.0006207827552014196,-3.207060355900782,Halosulfuron-methyl,100784-20-1,91763,No,10.1021/acs.jced.0c00633
COC(=O)c1c(Cl)nn(C)c1S(=O)(=O)NC(=O)Nc1nc(OC)cc(OC)n1,283.15,ethanol,CCO,4.179e-05,0.0007235472224299033,-3.1405331193183077,Halosulfuron-methyl,100784-20-1,91763,No,10.1021/acs.jced.0c00633
COC(=O)c1c(Cl)nn(C)c1S(=O)(=O)NC(=O)Nc1nc(OC)cc(OC)n1,288.15,ethanol,CCO,4.872e-05,0.0008389906249123557,-3.0762428920575684,Halosulfuron-methyl,100784-20-1,91763,No,10.1021/acs.jced.0c00633
COC(=O)c1c(Cl)nn(C)c1S(=O)(=O)NC(=O)Nc1nc(OC)cc(OC)n1,293.15,ethanol,CCO,5.643e-05,0.0009671757763658876,-3.0144945892382364,Halosulfuron-methyl,100784-20-1,91763,No,10.1021/acs.jced.0c00633
COC(=O)c1c(Cl)nn(C)c1S(=O)(=O)NC(=O)Nc1nc(OC)cc(OC)n1,298.15,ethanol,CCO,6.478e-05,0.0011045052341052896,-2.95683222172314,Halosulfuron-methyl,100784-20-1,91763,No,10.1021/acs.jced.0c00633
COC(=O)c1c(Cl)nn(C)c1S(=O)(=O)NC(=O)Nc1nc(OC)cc(OC)n1,303.15,ethanol,CCO,7.293e-05,0.0012363018676780657,-2.907875474667692,Halosulfuron-methyl,100784-20-1,91763,No,10.1021/acs.jced.0c00633
COC(=O)c1c(Cl)nn(C)c1S(=O)(=O)NC(=O)Nc1nc(OC)cc(OC)n1,308.15,ethanol,CCO,8.219e-05,0.0013852603956098935,-2.8584685820169504,Halosulfuron-methyl,100784-20-1,91763,No,10.1021/acs.jced.0c00633
COC(=O)c1c(Cl)nn(C)c1S(=O)(=O)NC(=O)Nc1nc(OC)cc(OC)n1,313.15,ethanol,CCO,9.246e-05,0.0015498737057162404,-2.809703689665324,Halosulfuron-methyl,100784-20-1,91763,No,10.1021/acs.jced.0c00633
COC(=O)c1c(Cl)nn(C)c1S(=O)(=O)NC(=O)Nc1nc(OC)cc(OC)n1,318.15,ethanol,CCO,0.0001027,0.001711470890594055,-2.766630483123757,Halosulfuron-methyl,100784-20-1,91763,No,10.1021/acs.jced.0c00633
COC(=O)c1c(Cl)nn(C)c1S(=O)(=O)NC(=O)Nc1nc(OC)cc(OC)n1,323.15,ethanol,CCO,0.0001165,0.0019302168388306091,-2.7143938999985453,Halosulfuron-methyl,100784-20-1,91763,No,10.1021/acs.jced.0c00633
Nc1ccc(Cc2ccc(N)c(Cl)c2)cc1Cl,283.15,ethanol,CCO,0.0223,0.39488951976111947,-0.40352439214421576,"4,4-methylene-bis-(2-chloroaniline)",101-14-4,7543,No,10.1021/acs.jced.0c00655
Nc1ccc(Cc2ccc(N)c(Cl)c2)cc1Cl,288.15,ethanol,CCO,0.02418,0.4266927369856217,-0.36988474948639194,"4,4-methylene-bis-(2-chloroaniline)",101-14-4,7543,No,10.1021/acs.jced.0c00655
Nc1ccc(Cc2ccc(N)c(Cl)c2)cc1Cl,293.15,ethanol,CCO,0.0272,0.4791993217267919,-0.3194838053318501,"4,4-methylene-bis-(2-chloroaniline)",101-14-4,7543,No,10.1021/acs.jced.0c00655
Nc1ccc(Cc2ccc(N)c(Cl)c2)cc1Cl,298.15,ethanol,CCO,0.03135,0.5517843294576201,-0.25823063754063585,"4,4-methylene-bis-(2-chloroaniline)",101-14-4,7543,No,10.1021/acs.jced.0c00655
Nc1ccc(Cc2ccc(N)c(Cl)c2)cc1Cl,303.15,ethanol,CCO,0.03624,0.6373910033351523,-0.19559407081125615,"4,4-methylene-bis-(2-chloroaniline)",101-14-4,7543,No,10.1021/acs.jced.0c00655
Nc1ccc(Cc2ccc(N)c(Cl)c2)cc1Cl,308.15,ethanol,CCO,0.04244,0.74694069354253,-0.12671387942919857,"4,4-methylene-bis-(2-chloroaniline)",101-14-4,7543,No,10.1021/acs.jced.0c00655
Nc1ccc(Cc2ccc(N)c(Cl)c2)cc1Cl,313.15,ethanol,CCO,0.04898,0.8632396799021983,-0.06386860497192717,"4,4-methylene-bis-(2-chloroaniline)",101-14-4,7543,No,10.1021/acs.jced.0c00655
Nc1ccc(Cc2ccc(N)c(Cl)c2)cc1Cl,318.15,ethanol,CCO,0.05702,1.0075792154208978,0.0032792001905912788,"4,4-methylene-bis-(2-chloroaniline)",101-14-4,7543,No,10.1021/acs.jced.0c00655
Nc1ccc(Cc2ccc(N)c(Cl)c2)cc1Cl,323.15,ethanol,CCO,0.06766,1.202229146759635,0.07998725276537988,"4,4-methylene-bis-(2-chloroaniline)",101-14-4,7543,No,10.1021/acs.jced.0c00655
Nc1ccc(Cc2ccc(N)c(Cl)c2)cc1Cl,328.15,ethanol,CCO,0.08025,1.4367436873100716,0.15737929762934771,"4,4-methylene-bis-(2-chloroaniline)",101-14-4,7543,No,10.1021/acs.jced.0c00655
c1ccc2[nH]c(-c3cscn3)nc2c1,283.15,ethanol,CCO,0.00128,0.022189247925334183,-1.65385741734494,Thiabendazole,148-79-8,5430,Yes,10.1021/acs.jced.0c00724
c1ccc2[nH]c(-c3cscn3)nc2c1,288.15,ethanol,CCO,0.001403,0.02419335415956035,-1.616303917003723,Thiabendazole,148-79-8,5430,Yes,10.1021/acs.jced.0c00724
c1ccc2[nH]c(-c3cscn3)nc2c1,293.15,ethanol,CCO,0.001531,0.026279158699659813,-1.5803885423825692,Thiabendazole,148-79-8,5430,Yes,10.1021/acs.jced.0c00724
c1ccc2[nH]c(-c3cscn3)nc2c1,298.15,ethanol,CCO,0.001628,0.02780101859438053,-1.55593929178643,Thiabendazole,148-79-8,5430,Yes,10.1021/acs.jced.0c00724
c1ccc2[nH]c(-c3cscn3)nc2c1,303.15,ethanol,CCO,0.001921,0.03262489213169238,-1.4864509155674777,Thiabendazole,148-79-8,5430,Yes,10.1021/acs.jced.0c00724
c1ccc2[nH]c(-c3cscn3)nc2c1,308.15,ethanol,CCO,0.002129,0.03595654888779364,-1.444221998554848,Thiabendazole,148-79-8,5430,Yes,10.1021/acs.jced.0c00724
c1ccc2[nH]c(-c3cscn3)nc2c1,313.15,ethanol,CCO,0.002339,0.03929610367817734,-1.4056505090381954,Thiabendazole,148-79-8,5430,Yes,10.1021/acs.jced.0c00724
c1ccc2[nH]c(-c3cscn3)nc2c1,318.15,ethanol,CCO,0.002741,0.04579895197570594,-1.3391444599082578,Thiabendazole,148-79-8,5430,Yes,10.1021/acs.jced.0c00724
c1ccc2[nH]c(-c3cscn3)nc2c1,323.15,ethanol,CCO,0.002948,0.04898230819943093,-1.3099607534159474,Thiabendazole,148-79-8,5430,Yes,10.1021/acs.jced.0c00724
O=Cc1cc(C=O)cc(C=O)c1,283.15,ethanol,CCO,0.001805,0.03130676376079253,-1.5043618239024403,"1,3,5-triformylbenzene",3163-76-6,2747968,No,10.1021/acs.jced.0c00776
O=Cc1cc(C=O)cc(C=O)c1,288.15,ethanol,CCO,0.002082,0.03592646922954196,-1.4445854621572638,"1,3,5-triformylbenzene",3163-76-6,2747968,No,10.1021/acs.jced.0c00776