SMILES_Solute,Temperature_K,Solvent,SMILES_Solvent,Solubility(mole_fraction),Solubility(mol/L),LogS(mol/L),Compound_Name,CAS,PubChem_CID,FDA_Approved,Source
Nc1ccc([N+](=O)[O-])cc1N,290.65,ethanol,CCO,0.001111,0.019114120668392857,-1.7186456765959797,"4-nitro-1,2-phenylenediamine",99-56-9,5111791,No,10.1016/j.jct.2016.11.014
Nc1ccc([N+](=O)[O-])cc1N,293.15,ethanol,CCO,0.00119,0.020419021768596893,-1.689965067865016,"4-nitro-1,2-phenylenediamine",99-56-9,5111791,No,10.1016/j.jct.2016.11.014
Nc1ccc([N+](=O)[O-])cc1N,295.65,ethanol,CCO,0.001285,0.021989516907606775,-1.6577843116426307,"4-nitro-1,2-phenylenediamine",99-56-9,5111791,No,10.1016/j.jct.2016.11.014
Nc1ccc([N+](=O)[O-])cc1N,298.15,ethanol,CCO,0.001388,0.023696891806785508,-1.62530861431418,"4-nitro-1,2-phenylenediamine",99-56-9,5111791,No,10.1016/j.jct.2016.11.014
Nc1ccc([N+](=O)[O-])cc1N,300.65,ethanol,CCO,0.001488,0.025327191862721858,-1.5964129596816485,"4-nitro-1,2-phenylenediamine",99-56-9,5111791,No,10.1016/j.jct.2016.11.014
Nc1ccc([N+](=O)[O-])cc1N,303.15,ethanol,CCO,0.001599,0.027147515760855136,-1.566269906064634,"4-nitro-1,2-phenylenediamine",99-56-9,5111791,No,10.1016/j.jct.2016.11.014
Nc1ccc([N+](=O)[O-])cc1N,305.65,ethanol,CCO,0.001709,0.028932905264071183,-1.538607954986501,"4-nitro-1,2-phenylenediamine",99-56-9,5111791,No,10.1016/j.jct.2016.11.014
Nc1ccc([N+](=O)[O-])cc1N,308.15,ethanol,CCO,0.001823,0.030779095378460946,-1.5117441485693865,"4-nitro-1,2-phenylenediamine",99-56-9,5111791,No,10.1016/j.jct.2016.11.014
Nc1ccc([N+](=O)[O-])cc1N,310.65,ethanol,CCO,0.001948,0.03280189890493901,-1.4841010142131472,"4-nitro-1,2-phenylenediamine",99-56-9,5111791,No,10.1016/j.jct.2016.11.014
Nc1ccc([N+](=O)[O-])cc1N,313.15,ethanol,CCO,0.002093,0.03515454034343639,-1.4540185762271116,"4-nitro-1,2-phenylenediamine",99-56-9,5111791,No,10.1016/j.jct.2016.11.014
Nc1ccc([N+](=O)[O-])cc1N,315.65,ethanol,CCO,0.002233,0.03739943343995475,-1.4271349768306705,"4-nitro-1,2-phenylenediamine",99-56-9,5111791,No,10.1016/j.jct.2016.11.014
Nc1ccc([N+](=O)[O-])cc1N,318.15,ethanol,CCO,0.002422,0.04045588860988946,-1.3930182551481276,"4-nitro-1,2-phenylenediamine",99-56-9,5111791,No,10.1016/j.jct.2016.11.014
Nc1cc(Cl)ccc1C(=O)O,278.15,ethanol,CCO,0.009943,0.17497080433494955,-0.7570344117366852,2-amino-4-chlorobenzoic acid,89-77-0,66646,No,10.1016/j.jct.2016.11.019
Nc1cc(Cl)ccc1C(=O)O,280.65,ethanol,CCO,0.01088,0.19111932127067327,-0.7186954055819789,2-amino-4-chlorobenzoic acid,89-77-0,66646,No,10.1016/j.jct.2016.11.019
Nc1cc(Cl)ccc1C(=O)O,283.15,ethanol,CCO,0.01184,0.2074439590895252,-0.6830992076042733,2-amino-4-chlorobenzoic acid,89-77-0,66646,No,10.1016/j.jct.2016.11.019
Nc1cc(Cl)ccc1C(=O)O,285.65,ethanol,CCO,0.01287,0.22529514132331838,-0.647248174096076,2-amino-4-chlorobenzoic acid,89-77-0,66646,No,10.1016/j.jct.2016.11.019
Nc1cc(Cl)ccc1C(=O)O,288.15,ethanol,CCO,0.01396,0.24379205840120804,-0.6129804457590979,2-amino-4-chlorobenzoic acid,89-77-0,66646,No,10.1016/j.jct.2016.11.019
Nc1cc(Cl)ccc1C(=O)O,290.65,ethanol,CCO,0.01512,0.26383108769362673,-0.5786740320711935,2-amino-4-chlorobenzoic acid,89-77-0,66646,No,10.1016/j.jct.2016.11.019
Nc1cc(Cl)ccc1C(=O)O,293.15,ethanol,CCO,0.01636,0.2850479820030877,-0.5450820292363298,2-amino-4-chlorobenzoic acid,89-77-0,66646,No,10.1016/j.jct.2016.11.019
Nc1cc(Cl)ccc1C(=O)O,295.65,ethanol,CCO,0.01767,0.30742081917124103,-0.5122667245232573,2-amino-4-chlorobenzoic acid,89-77-0,66646,No,10.1016/j.jct.2016.11.019
Nc1cc(Cl)ccc1C(=O)O,298.15,ethanol,CCO,0.01906,0.3312677456010799,-0.47982084781679285,2-amino-4-chlorobenzoic acid,89-77-0,66646,No,10.1016/j.jct.2016.11.019
Nc1cc(Cl)ccc1C(=O)O,300.65,ethanol,CCO,0.02054,0.35641102706943834,-0.4480488677066442,2-amino-4-chlorobenzoic acid,89-77-0,66646,No,10.1016/j.jct.2016.11.019
Nc1cc(Cl)ccc1C(=O)O,303.15,ethanol,CCO,0.0221,0.3830755775929423,-0.41671553492559893,2-amino-4-chlorobenzoic acid,89-77-0,66646,No,10.1016/j.jct.2016.11.019
Nc1cc(Cl)ccc1C(=O)O,305.65,ethanol,CCO,0.02375,0.41115890914973957,-0.3859902948426157,2-amino-4-chlorobenzoic acid,89-77-0,66646,No,10.1016/j.jct.2016.11.019
Nc1cc(Cl)ccc1C(=O)O,308.15,ethanol,CCO,0.02549,0.44081897140253584,-0.35573972314415886,2-amino-4-chlorobenzoic acid,89-77-0,66646,No,10.1016/j.jct.2016.11.019
Nc1cc(Cl)ccc1C(=O)O,310.65,ethanol,CCO,0.02732,0.4720346847202472,-0.3260260885922392,2-amino-4-chlorobenzoic acid,89-77-0,66646,No,10.1016/j.jct.2016.11.019
Nc1cc(Cl)ccc1C(=O)O,313.15,ethanol,CCO,0.02926,0.505212003910956,-0.29652633909383397,2-amino-4-chlorobenzoic acid,89-77-0,66646,No,10.1016/j.jct.2016.11.019
Clc1ccc2c(c1)Nc1ccccc1S2,283.15,ethanol,CCO,0.00431,0.0749427257379586,-1.1252705152530722,2-chlorophenothiazine,92-39-7,7088,No,10.1016/j.jct.2016.11.029
Clc1ccc2c(c1)Nc1ccccc1S2,285.65,ethanol,CCO,0.00446,0.07741476044003287,-1.111176225796511,2-chlorophenothiazine,92-39-7,7088,No,10.1016/j.jct.2016.11.029
Clc1ccc2c(c1)Nc1ccccc1S2,288.15,ethanol,CCO,0.00465,0.08044624940691705,-1.0944941989216934,2-chlorophenothiazine,92-39-7,7088,No,10.1016/j.jct.2016.11.029
Clc1ccc2c(c1)Nc1ccccc1S2,290.65,ethanol,CCO,0.00486,0.08392852315213693,-1.0760904188804676,2-chlorophenothiazine,92-39-7,7088,No,10.1016/j.jct.2016.11.029
Clc1ccc2c(c1)Nc1ccccc1S2,293.15,ethanol,CCO,0.00505,0.08698832619019825,-1.0605390256727854,2-chlorophenothiazine,92-39-7,7088,No,10.1016/j.jct.2016.11.029
Clc1ccc2c(c1)Nc1ccccc1S2,295.65,ethanol,CCO,0.00525,0.09019853607822206,-1.0448005109980734,2-chlorophenothiazine,92-39-7,7088,No,10.1016/j.jct.2016.11.029
Clc1ccc2c(c1)Nc1ccccc1S2,298.15,ethanol,CCO,0.00546,0.09359854288886266,-1.0287309121620247,2-chlorophenothiazine,92-39-7,7088,No,10.1016/j.jct.2016.11.029
Clc1ccc2c(c1)Nc1ccccc1S2,300.65,ethanol,CCO,0.00569,0.0972585648475575,-1.012072143192528,2-chlorophenothiazine,92-39-7,7088,No,10.1016/j.jct.2016.11.029
Clc1ccc2c(c1)Nc1ccccc1S2,303.15,ethanol,CCO,0.00592,0.10094551033441859,-0.995912992028391,2-chlorophenothiazine,92-39-7,7088,No,10.1016/j.jct.2016.11.029
Clc1ccc2c(c1)Nc1ccccc1S2,305.65,ethanol,CCO,0.00617,0.10492529521058036,-0.9791198002137257,2-chlorophenothiazine,92-39-7,7088,No,10.1016/j.jct.2016.11.029
Clc1ccc2c(c1)Nc1ccccc1S2,308.15,ethanol,CCO,0.00641,0.1087245350273014,-0.9636724409678372,2-chlorophenothiazine,92-39-7,7088,No,10.1016/j.jct.2016.11.029
Clc1ccc2c(c1)Nc1ccccc1S2,310.65,ethanol,CCO,0.00667,0.11284842040928778,-0.9475045155612404,2-chlorophenothiazine,92-39-7,7088,No,10.1016/j.jct.2016.11.029
Clc1ccc2c(c1)Nc1ccccc1S2,313.15,ethanol,CCO,0.00695,0.11730484590741691,-0.9306840466450804,2-chlorophenothiazine,92-39-7,7088,No,10.1016/j.jct.2016.11.029
Clc1ccc2c(c1)Nc1ccccc1S2,315.65,ethanol,CCO,0.00723,0.1217012638870085,-0.9147049115291517,2-chlorophenothiazine,92-39-7,7088,No,10.1016/j.jct.2016.11.029
Clc1ccc2c(c1)Nc1ccccc1S2,318.15,ethanol,CCO,0.00756,0.12693225758843915,-0.8964279956168726,2-chlorophenothiazine,92-39-7,7088,No,10.1016/j.jct.2016.11.029
COc1cc(CO)ccc1O,293.15,ethanol,CCO,0.0442,0.7925489514393312,-0.10097390427307229,Vanillyl alcohol,498-00-0,62348,No,10.1016/j.jct.2016.11.030
COc1cc(CO)ccc1O,303.15,ethanol,CCO,0.0627,1.1339021044597757,0.054575561322179666,Vanillyl alcohol,498-00-0,62348,No,10.1016/j.jct.2016.11.030
COc1cc(CO)ccc1O,313.15,ethanol,CCO,0.0936,1.7308451536594336,0.23825821639110684,Vanillyl alcohol,498-00-0,62348,No,10.1016/j.jct.2016.11.030
COc1cc(CO)ccc1O,323.15,ethanol,CCO,0.142,2.7417675554166463,0.4380306329192205,Vanillyl alcohol,498-00-0,62348,No,10.1016/j.jct.2016.11.030
COc1cc(CO)ccc1O,333.15,ethanol,CCO,0.205,4.222596922226723,0.6255796268173869,Vanillyl alcohol,498-00-0,62348,No,10.1016/j.jct.2016.11.030
COc1cc(CO)ccc1O,343.15,ethanol,CCO,0.317,7.514011937428952,0.8758718806868286,Vanillyl alcohol,498-00-0,62348,No,10.1016/j.jct.2016.11.030
CC(C)(C)C(O)(CCc1ccc(Cl)cc1)Cn1cncn1,278.15,ethanol,CCO,0.01031,0.18149632292146148,-0.741132169256494,Tebuconazole,107534-96-3,86102,No,10.1016/j.jct.2016.11.032
CC(C)(C)C(O)(CCc1ccc(Cl)cc1)Cn1cncn1,280.65,ethanol,CCO,0.01182,0.20782897663926544,-0.6822939008731429,Tebuconazole,107534-96-3,86102,No,10.1016/j.jct.2016.11.032
CC(C)(C)C(O)(CCc1ccc(Cl)cc1)Cn1cncn1,283.15,ethanol,CCO,0.01358,0.23834950854708573,-0.6227857392079224,Tebuconazole,107534-96-3,86102,No,10.1016/j.jct.2016.11.032
CC(C)(C)C(O)(CCc1ccc(Cl)cc1)Cn1cncn1,285.65,ethanol,CCO,0.01569,0.2754473992108604,-0.5599613239031279,Tebuconazole,107534-96-3,86102,No,10.1016/j.jct.2016.11.032
CC(C)(C)C(O)(CCc1ccc(Cl)cc1)Cn1cncn1,288.15,ethanol,CCO,0.01791,0.3140313208615556,-0.5030270340956468,Tebuconazole,107534-96-3,86102,No,10.1016/j.jct.2016.11.032
CC(C)(C)C(O)(CCc1ccc(Cl)cc1)Cn1cncn1,290.65,ethanol,CCO,0.02032,0.3564486355252789,-0.44800304341410346,Tebuconazole,107534-96-3,86102,No,10.1016/j.jct.2016.11.032
CC(C)(C)C(O)(CCc1ccc(Cl)cc1)Cn1cncn1,293.15,ethanol,CCO,0.02341,0.4108279603125349,-0.3863400066613718,Tebuconazole,107534-96-3,86102,No,10.1016/j.jct.2016.11.032
CC(C)(C)C(O)(CCc1ccc(Cl)cc1)Cn1cncn1,295.65,ethanol,CCO,0.02636,0.4627017389069332,-0.3346988683491054,Tebuconazole,107534-96-3,86102,No,10.1016/j.jct.2016.11.032
CC(C)(C)C(O)(CCc1ccc(Cl)cc1)Cn1cncn1,298.15,ethanol,CCO,0.02987,0.5249331357333809,-0.2798960120823922,Tebuconazole,107534-96-3,86102,No,10.1016/j.jct.2016.11.032
CC(C)(C)C(O)(CCc1ccc(Cl)cc1)Cn1cncn1,300.65,ethanol,CCO,0.03326,0.5847226998052776,-0.23305004587742287,Tebuconazole,107534-96-3,86102,No,10.1016/j.jct.2016.11.032
CC(C)(C)C(O)(CCc1ccc(Cl)cc1)Cn1cncn1,303.15,ethanol,CCO,0.03703,0.651819865142938,-0.18587240792350754,Tebuconazole,107534-96-3,86102,No,10.1016/j.jct.2016.11.032
CC(C)(C)C(O)(CCc1ccc(Cl)cc1)Cn1cncn1,305.65,ethanol,CCO,0.04107,0.7238439273294757,-0.14035506475100673,Tebuconazole,107534-96-3,86102,No,10.1016/j.jct.2016.11.032
CC(C)(C)C(O)(CCc1ccc(Cl)cc1)Cn1cncn1,308.15,ethanol,CCO,0.04627,0.8176186648851261,-0.08744920286972087,Tebuconazole,107534-96-3,86102,No,10.1016/j.jct.2016.11.032
CC(C)(C)C(O)(CCc1ccc(Cl)cc1)Cn1cncn1,310.65,ethanol,CCO,0.05147,0.911940071646929,-0.040033700496364545,Tebuconazole,107534-96-3,86102,No,10.1016/j.jct.2016.11.032
CC(C)(C)C(O)(CCc1ccc(Cl)cc1)Cn1cncn1,313.15,ethanol,CCO,0.05717,1.016335425810929,0.007037063791868915,Tebuconazole,107534-96-3,86102,No,10.1016/j.jct.2016.11.032
CC(C)c1ncc[nH]1,278.15,ethanol,CCO,0.1886,4.049627085843154,0.60741503259314,2-isopropylimidazole,36947-68-9,123457,No,10.1016/j.jct.2016.12.028
CC(C)c1ncc[nH]1,280.65,ethanol,CCO,0.1958,4.230320784884141,0.6263733011392977,2-isopropylimidazole,36947-68-9,123457,No,10.1016/j.jct.2016.12.028
CC(C)c1ncc[nH]1,283.15,ethanol,CCO,0.2025,4.396131712204081,0.6430706958138989,2-isopropylimidazole,36947-68-9,123457,No,10.1016/j.jct.2016.12.028
CC(C)c1ncc[nH]1,285.65,ethanol,CCO,0.2101,4.5962280452255735,0.6624015683900747,2-isopropylimidazole,36947-68-9,123457,No,10.1016/j.jct.2016.12.028
CC(C)c1ncc[nH]1,288.15,ethanol,CCO,0.2164,4.755448667777791,0.6771914980868415,2-isopropylimidazole,36947-68-9,123457,No,10.1016/j.jct.2016.12.028
CC(C)c1ncc[nH]1,290.65,ethanol,CCO,0.226,5.017934331752525,0.7005249735301808,2-isopropylimidazole,36947-68-9,123457,No,10.1016/j.jct.2016.12.028
CC(C)c1ncc[nH]1,293.15,ethanol,CCO,0.2346,5.253036306527926,0.7204104024536409,2-isopropylimidazole,36947-68-9,123457,No,10.1016/j.jct.2016.12.028
CC(C)c1ncc[nH]1,295.65,ethanol,CCO,0.2433,5.495060880322531,0.7399725083776468,2-isopropylimidazole,36947-68-9,123457,No,10.1016/j.jct.2016.12.028
CC(C)c1ncc[nH]1,298.15,ethanol,CCO,0.2528,5.768181356119624,0.7610389064831878,2-isopropylimidazole,36947-68-9,123457,No,10.1016/j.jct.2016.12.028
CC(C)c1ncc[nH]1,300.65,ethanol,CCO,0.2625,6.049293842557781,0.7817046807384522,2-isopropylimidazole,36947-68-9,123457,No,10.1016/j.jct.2016.12.028
CC(C)c1ncc[nH]1,303.15,ethanol,CCO,0.2726,6.352419822764926,0.8029391922976907,2-isopropylimidazole,36947-68-9,123457,No,10.1016/j.jct.2016.12.028
CC(C)c1ncc[nH]1,305.65,ethanol,CCO,0.282,6.637916762128496,0.8220318021589164,2-isopropylimidazole,36947-68-9,123457,No,10.1016/j.jct.2016.12.028
CC(C)c1ncc[nH]1,308.15,ethanol,CCO,0.2937,7.007957859884824,0.8455914816767892,2-isopropylimidazole,36947-68-9,123457,No,10.1016/j.jct.2016.12.028
CC(C)c1ncc[nH]1,310.65,ethanol,CCO,0.304,7.34053217342363,0.8657275465105166,2-isopropylimidazole,36947-68-9,123457,No,10.1016/j.jct.2016.12.028
CC(C)c1ncc[nH]1,313.15,ethanol,CCO,0.3146,7.693374660397263,0.8861168827017625,2-isopropylimidazole,36947-68-9,123457,No,10.1016/j.jct.2016.12.028
Nc1ccc(N)c([N+](=O)[O-])c1,283.15,ethanol,CCO,0.007246,0.12636681633803992,-0.898366955905892,2-nitro-p-phenylenediamine,5307-14-2,4338370,No,10.1016/j.jct.2017.01.006
Nc1ccc(N)c([N+](=O)[O-])c1,285.65,ethanol,CCO,0.007513,0.1308085681224017,-0.883363808256333,2-nitro-p-phenylenediamine,5307-14-2,4338370,No,10.1016/j.jct.2017.01.006
Nc1ccc(N)c([N+](=O)[O-])c1,288.15,ethanol,CCO,0.007809,0.13552793104949856,-0.8679711915009121,2-nitro-p-phenylenediamine,5307-14-2,4338370,No,10.1016/j.jct.2017.01.006
Nc1ccc(N)c([N+](=O)[O-])c1,290.65,ethanol,CCO,0.008097,0.14028538570598595,-0.8529875694408612,2-nitro-p-phenylenediamine,5307-14-2,4338370,No,10.1016/j.jct.2017.01.006
Nc1ccc(N)c([N+](=O)[O-])c1,293.15,ethanol,CCO,0.008364,0.14455482485918789,-0.8399674081458571,2-nitro-p-phenylenediamine,5307-14-2,4338370,No,10.1016/j.jct.2017.01.006
Nc1ccc(N)c([N+](=O)[O-])c1,295.65,ethanol,CCO,0.008653,0.14917468877977522,-0.8263048595429713,2-nitro-p-phenylenediamine,5307-14-2,4338370,No,10.1016/j.jct.2017.01.006
Nc1ccc(N)c([N+](=O)[O-])c1,298.15,ethanol,CCO,0.008934,0.1536887473831237,-0.8133579290410204,2-nitro-p-phenylenediamine,5307-14-2,4338370,No,10.1016/j.jct.2017.01.006
Nc1ccc(N)c([N+](=O)[O-])c1,300.65,ethanol,CCO,0.009245,0.15859081844472886,-0.7997219596048885,2-nitro-p-phenylenediamine,5307-14-2,4338370,No,10.1016/j.jct.2017.01.006
Nc1ccc(N)c([N+](=O)[O-])c1,303.15,ethanol,CCO,0.009577,0.16390620983409607,-0.7854045922159999,2-nitro-p-phenylenediamine,5307-14-2,4338370,No,10.1016/j.jct.2017.01.006
Nc1ccc(N)c([N+](=O)[O-])c1,305.65,ethanol,CCO,0.009904,0.16905984396234278,-0.7719595362022272,2-nitro-p-phenylenediamine,5307-14-2,4338370,No,10.1016/j.jct.2017.01.006
Nc1ccc(N)c([N+](=O)[O-])c1,308.15,ethanol,CCO,0.01026,0.1747040527189283,-0.7576970203001123,2-nitro-p-phenylenediamine,5307-14-2,4338370,No,10.1016/j.jct.2017.01.006
Nc1ccc(N)c([N+](=O)[O-])c1,310.65,ethanol,CCO,0.01059,0.17987999513108008,-0.7450171328594053,2-nitro-p-phenylenediamine,5307-14-2,4338370,No,10.1016/j.jct.2017.01.006
Nc1ccc(N)c([N+](=O)[O-])c1,313.15,ethanol,CCO,0.01095,0.18556588466012852,-0.731501863600473,2-nitro-p-phenylenediamine,5307-14-2,4338370,No,10.1016/j.jct.2017.01.006
Nc1ccc(N)c([N+](=O)[O-])c1,315.65,ethanol,CCO,0.01132,0.19133574604493453,-0.7182038859067325,2-nitro-p-phenylenediamine,5307-14-2,4338370,No,10.1016/j.jct.2017.01.006
Nc1ccc(N)c([N+](=O)[O-])c1,318.15,ethanol,CCO,0.01173,0.19777749365509242,-0.7038231310276374,2-nitro-p-phenylenediamine,5307-14-2,4338370,No,10.1016/j.jct.2017.01.006
Cc1ccc(N)c([N+](=O)[O-])c1,278.15,ethanol,CCO,0.009826,0.1728914787748666,-0.7622264110768634,4-methyl-2-nitroaniline,89-62-3,6978,No,10.1016/j.jct.2017.02.008
Cc1ccc(N)c([N+](=O)[O-])c1,280.65,ethanol,CCO,0.01072,0.18827828713071235,-0.725199761358978,4-methyl-2-nitroaniline,89-62-3,6978,No,10.1016/j.jct.2017.02.008
Cc1ccc(N)c([N+](=O)[O-])c1,283.15,ethanol,CCO,0.01175,0.20584835633844517,-0.686452596414823,4-methyl-2-nitroaniline,89-62-3,6978,No,10.1016/j.jct.2017.02.008
Cc1ccc(N)c([N+](=O)[O-])c1,285.65,ethanol,CCO,0.01278,0.22369925540248567,-0.6503354614783811,4-methyl-2-nitroaniline,89-62-3,6978,No,10.1016/j.jct.2017.02.008
Cc1ccc(N)c([N+](=O)[O-])c1,288.15,ethanol,CCO,0.01392,0.24308365281550898,-0.6142442461370484,4-methyl-2-nitroaniline,89-62-3,6978,No,10.1016/j.jct.2017.02.008
Cc1ccc(N)c([N+](=O)[O-])c1,290.65,ethanol,CCO,0.01517,0.2647169840418027,-0.5772181937987328,4-methyl-2-nitroaniline,89-62-3,6978,No,10.1016/j.jct.2017.02.008
Cc1ccc(N)c([N+](=O)[O-])c1,293.15,ethanol,CCO,0.01654,0.2882369523128769,-0.5402503428945694,4-methyl-2-nitroaniline,89-62-3,6978,No,10.1016/j.jct.2017.02.008
Cc1ccc(N)c([N+](=O)[O-])c1,295.65,ethanol,CCO,0.01791,0.3116724610749692,-0.5063015696562596,4-methyl-2-nitroaniline,89-62-3,6978,No,10.1016/j.jct.2017.02.008
Cc1ccc(N)c([N+](=O)[O-])c1,298.15,ethanol,CCO,0.01941,0.3374712463673423,-0.47176322453954056,4-methyl-2-nitroaniline,89-62-3,6978,No,10.1016/j.jct.2017.02.008
Cc1ccc(N)c([N+](=O)[O-])c1,300.65,ethanol,CCO,0.02099,0.3643868605633185,-0.4384372916543857,4-methyl-2-nitroaniline,89-62-3,6978,No,10.1016/j.jct.2017.02.008
Cc1ccc(N)c([N+](=O)[O-])c1,303.15,ethanol,CCO,0.02282,0.39584731904356574,-0.4024722920619688,4-methyl-2-nitroaniline,89-62-3,6978,No,10.1016/j.jct.2017.02.008
Cc1ccc(N)c([N+](=O)[O-])c1,305.65,ethanol,CCO,0.02464,0.42695578324937644,-0.36961709941322535,4-methyl-2-nitroaniline,89-62-3,6978,No,10.1016/j.jct.2017.02.008
Cc1ccc(N)c([N+](=O)[O-])c1,308.15,ethanol,CCO,0.02664,0.46125115520318755,-0.3360625331413026,4-methyl-2-nitroaniline,89-62-3,6978,No,10.1016/j.jct.2017.02.008
Cc1ccc(N)c([N+](=O)[O-])c1,310.65,ethanol,CCO,0.02886,0.4994335195769789,-0.3015223132485948,4-methyl-2-nitroaniline,89-62-3,6978,No,10.1016/j.jct.2017.02.008
Cc1ccc(N)c([N+](=O)[O-])c1,313.15,ethanol,CCO,0.03115,0.5388945257228013,-0.26849622809529994,4-methyl-2-nitroaniline,89-62-3,6978,No,10.1016/j.jct.2017.02.008
Cc1cc(C)[nH]n1,283.15,ethanol,CCO,0.1201,2.3631214903039135,0.3734860496951216,"3,5-dimethylpyrazole",67-51-6,6210,No,10.1016/j.jct.2017.02.011
Cc1cc(C)[nH]n1,285.65,ethanol,CCO,0.1265,2.5025066833268297,0.3983752460027397,"3,5-dimethylpyrazole",67-51-6,6210,No,10.1016/j.jct.2017.02.011
Cc1cc(C)[nH]n1,288.15,ethanol,CCO,0.1334,2.6507319565309313,0.4233658138571825,"3,5-dimethylpyrazole",67-51-6,6210,No,10.1016/j.jct.2017.02.011
Cc1cc(C)[nH]n1,290.65,ethanol,CCO,0.1402,2.8022576788966096,0.4475080679153242,"3,5-dimethylpyrazole",67-51-6,6210,No,10.1016/j.jct.2017.02.011
Cc1cc(C)[nH]n1,293.15,ethanol,CCO,0.1478,2.972376073604764,0.4731037567569833,"3,5-dimethylpyrazole",67-51-6,6210,No,10.1016/j.jct.2017.02.011
Cc1cc(C)[nH]n1,295.65,ethanol,CCO,0.1551,3.1373330251012286,0.4965606211163945,"3,5-dimethylpyrazole",67-51-6,6210,No,10.1016/j.jct.2017.02.011
Cc1cc(C)[nH]n1,298.15,ethanol,CCO,0.1626,3.310444298142976,0.519886284797715,"3,5-dimethylpyrazole",67-51-6,6210,No,10.1016/j.jct.2017.02.011
Cc1cc(C)[nH]n1,300.65,ethanol,CCO,0.1705,3.4933764694285143,0.5432453906148141,"3,5-dimethylpyrazole",67-51-6,6210,No,10.1016/j.jct.2017.02.011
Cc1cc(C)[nH]n1,303.15,ethanol,CCO,0.1787,3.6881567203929704,0.5668093671960592,"3,5-dimethylpyrazole",67-51-6,6210,No,10.1016/j.jct.2017.02.011
Cc1cc(C)[nH]n1,305.65,ethanol,CCO,0.1869,3.8848341107643547,0.5893724783961749,"3,5-dimethylpyrazole",67-51-6,6210,No,10.1016/j.jct.2017.02.011
Cc1cc(C)[nH]n1,308.15,ethanol,CCO,0.1957,4.100619743235965,0.6128494983606154,"3,5-dimethylpyrazole",67-51-6,6210,No,10.1016/j.jct.2017.02.011
Cc1cc(C)[nH]n1,310.65,ethanol,CCO,0.2054,4.3442527134687285,0.6379150810542403,"3,5-dimethylpyrazole",67-51-6,6210,No,10.1016/j.jct.2017.02.011
Cc1cc(C)[nH]n1,313.15,ethanol,CCO,0.2172,4.650624427713809,0.6675112684391883,"3,5-dimethylpyrazole",67-51-6,6210,No,10.1016/j.jct.2017.02.011
Cc1c(C(=O)O)cccc1[N+](=O)[O-],283.15,ethanol,CCO,0.014879999999999999,0.2615111165369507,-0.5825098450451165,2-methyl-3-nitrobenzoic acid,1975-50-4,16096,No,10.1016/j.jct.2017.02.017
Cc1c(C(=O)O)cccc1[N+](=O)[O-],285.65,ethanol,CCO,0.0165,0.28990600400777866,-0.5377427902315965,2-methyl-3-nitrobenzoic acid,1975-50-4,16096,No,10.1016/j.jct.2017.02.017
Cc1c(C(=O)O)cccc1[N+](=O)[O-],288.15,ethanol,CCO,0.01855,0.32546508356685205,-0.4874955964279708,2-methyl-3-nitrobenzoic acid,1975-50-4,16096,No,10.1016/j.jct.2017.02.017
Cc1c(C(=O)O)cccc1[N+](=O)[O-],290.65,ethanol,CCO,0.02068,0.3628970230608682,-0.4402165944159791,2-methyl-3-nitrobenzoic acid,1975-50-4,16096,No,10.1016/j.jct.2017.02.017