SMILES_Solute,Temperature_K,Solvent,SMILES_Solvent,Solubility(mole_fraction),Solubility(mol/L),LogS(mol/L),Compound_Name,CAS,PubChem_CID,FDA_Approved,Source
O=C(O)c1cccc(C(=O)O)n1,278.15,ethanol,CCO,0.00378,0.06610661065515268,-1.179755108933401,"2,6-pyridinedicarboxylic acid",499-83-2,10367,No,10.1021/acs.jced.1c00200
O=C(O)c1cccc(C(=O)O)n1,288.15,ethanol,CCO,0.004919,0.0851230267521969,-1.0699529423985712,"2,6-pyridinedicarboxylic acid",499-83-2,10367,No,10.1021/acs.jced.1c00200
O=C(O)c1cccc(C(=O)O)n1,293.15,ethanol,CCO,0.005792,0.09984404154962483,-1.0006778476618974,"2,6-pyridinedicarboxylic acid",499-83-2,10367,No,10.1021/acs.jced.1c00200
O=C(O)c1cccc(C(=O)O)n1,298.15,ethanol,CCO,0.007021,0.12054733376526795,-0.9188423907932625,"2,6-pyridinedicarboxylic acid",499-83-2,10367,No,10.1021/acs.jced.1c00200
O=C(O)c1cccc(C(=O)O)n1,303.15,ethanol,CCO,0.008456,0.14455716450371023,-0.8399603790723972,"2,6-pyridinedicarboxylic acid",499-83-2,10367,No,10.1021/acs.jced.1c00200
O=C(O)c1cccc(C(=O)O)n1,308.15,ethanol,CCO,0.009744,0.16583131103163026,-0.7803334657976706,"2,6-pyridinedicarboxylic acid",499-83-2,10367,No,10.1021/acs.jced.1c00200
O=C(O)c1cccc(C(=O)O)n1,313.15,ethanol,CCO,0.011379,0.1929196789667486,-0.7146234694491265,"2,6-pyridinedicarboxylic acid",499-83-2,10367,No,10.1021/acs.jced.1c00200
O=C(O)c1cccc(C(=O)O)n1,318.15,ethanol,CCO,0.014228,0.24050374713317801,-0.6188781527762838,"2,6-pyridinedicarboxylic acid",499-83-2,10367,No,10.1021/acs.jced.1c00200
CC(C)(C)OC(=O)N1CCC[C@H]1C(=O)O,283.15,ethanol,CCO,0.096771,1.854913730066358,0.26832371587700277,Boc-L-proline,15761-39-4,85083,No,10.1021/acs.jced.1c00201
CC(C)(C)OC(=O)N1CCC[C@H]1C(=O)O,293.15,ethanol,CCO,0.111193,2.1440792505741797,0.33124083393629045,Boc-L-proline,15761-39-4,85083,No,10.1021/acs.jced.1c00201
CC(C)(C)OC(=O)N1CCC[C@H]1C(=O)O,303.15,ethanol,CCO,0.13251,2.5892310971676595,0.41317081433817465,Boc-L-proline,15761-39-4,85083,No,10.1021/acs.jced.1c00201
CC(C)(C)OC(=O)N1CCC[C@H]1C(=O)O,313.15,ethanol,CCO,0.17241,3.4918009760579167,0.5430494820372388,Boc-L-proline,15761-39-4,85083,No,10.1021/acs.jced.1c00201
CC(C)(C)OC(=O)N1CCC[C@H]1C(=O)O,323.15,ethanol,CCO,0.215472,4.550006016044232,0.6580119708841642,Boc-L-proline,15761-39-4,85083,No,10.1021/acs.jced.1c00201
Cl.N[C@@H](Cc1ccccc1)C(=O)OCc1ccccc1,283.15,ethanol,CCO,0.003111,0.05402932815813129,-1.2673704327760065,L-phenylalanine benzyl ester hydrochloride,2462-32-0,12636208,No,10.1021/acs.jced.1c00239
Cl.N[C@@H](Cc1ccccc1)C(=O)OCc1ccccc1,293.15,ethanol,CCO,0.003959,0.06812070574153382,-1.1667208613250253,L-phenylalanine benzyl ester hydrochloride,2462-32-0,12636208,No,10.1021/acs.jced.1c00239
Cl.N[C@@H](Cc1ccccc1)C(=O)OCc1ccccc1,303.15,ethanol,CCO,0.004913,0.08368976513752985,-1.0773276509204865,L-phenylalanine benzyl ester hydrochloride,2462-32-0,12636208,No,10.1021/acs.jced.1c00239
Cl.N[C@@H](Cc1ccccc1)C(=O)OCc1ccccc1,313.15,ethanol,CCO,0.00625,0.10541566194141475,-0.977094859812109,L-phenylalanine benzyl ester hydrochloride,2462-32-0,12636208,No,10.1021/acs.jced.1c00239
Cl.N[C@@H](Cc1ccccc1)C(=O)OCc1ccccc1,323.15,ethanol,CCO,0.008319,0.1389724481612713,-0.8570712918147017,L-phenylalanine benzyl ester hydrochloride,2462-32-0,12636208,No,10.1021/acs.jced.1c00239
O=C(N[C@H](C(=O)O)c1ccccc1)OCc1ccccc1,283.15,ethanol,CCO,0.023465,0.416015110240448,-0.3808908949144361,N-carbobenzoxy-L-2-phenylglycine,53990-33-3,819214,No,10.1021/acs.jced.1c00240
O=C(N[C@H](C(=O)O)c1ccccc1)OCc1ccccc1,293.15,ethanol,CCO,0.035367,0.6283577269160129,-0.2017930400302966,N-carbobenzoxy-L-2-phenylglycine,53990-33-3,819214,No,10.1021/acs.jced.1c00240
O=C(N[C@H](C(=O)O)c1ccccc1)OCc1ccccc1,303.15,ethanol,CCO,0.058139,1.0463268760979005,0.019667380811182734,N-carbobenzoxy-L-2-phenylglycine,53990-33-3,819214,No,10.1021/acs.jced.1c00240
O=C(N[C@H](C(=O)O)c1ccccc1)OCc1ccccc1,313.15,ethanol,CCO,0.092244,1.7032220210053075,0.231271263472109,N-carbobenzoxy-L-2-phenylglycine,53990-33-3,819214,No,10.1021/acs.jced.1c00240
O=C(N[C@H](C(=O)O)c1ccccc1)OCc1ccccc1,323.15,ethanol,CCO,0.141382,2.727870244467274,0.4358237085606593,N-carbobenzoxy-L-2-phenylglycine,53990-33-3,819214,No,10.1021/acs.jced.1c00240
Nc1cccc(C(=O)O)c1,283.15,ethanol,CCO,0.008206,0.1432472838642367,-0.8439136040129798,M-aminobenzoic acid,99-05-8,7419,No,10.1021/acs.jced.1c00247
Nc1cccc(C(=O)O)c1,288.15,ethanol,CCO,0.009548,0.1659998310463631,-0.7798923539820506,M-aminobenzoic acid,99-05-8,7419,No,10.1021/acs.jced.1c00247
Nc1cccc(C(=O)O)c1,293.15,ethanol,CCO,0.01067,0.18483920560602338,-0.7332059066414406,M-aminobenzoic acid,99-05-8,7419,No,10.1021/acs.jced.1c00247
Nc1cccc(C(=O)O)c1,298.15,ethanol,CCO,0.0117,0.20183466886433304,-0.6950042335238715,M-aminobenzoic acid,99-05-8,7419,No,10.1021/acs.jced.1c00247
Nc1cccc(C(=O)O)c1,303.15,ethanol,CCO,0.01366,0.23475275136658008,-0.6293893089816764,M-aminobenzoic acid,99-05-8,7419,No,10.1021/acs.jced.1c00247
Nc1cccc(C(=O)O)c1,308.15,ethanol,CCO,0.01538,0.26324760201201824,-0.579635576221076,M-aminobenzoic acid,99-05-8,7419,No,10.1021/acs.jced.1c00247
Nc1cccc(C(=O)O)c1,313.15,ethanol,CCO,0.0182,0.31070670454885513,-0.5076493752704334,M-aminobenzoic acid,99-05-8,7419,No,10.1021/acs.jced.1c00247
Nc1cccc(C(=O)O)c1,318.15,ethanol,CCO,0.02177,0.3708274890973999,-0.4308280794875933,M-aminobenzoic acid,99-05-8,7419,No,10.1021/acs.jced.1c00247
Nc1cccc(C(=O)O)c1,323.15,ethanol,CCO,0.02412,0.4094590385495712,-0.38778953766831636,M-aminobenzoic acid,99-05-8,7419,No,10.1021/acs.jced.1c00247
O=C(O)c1cccc([N+](=O)[O-])c1O,278.15,ethanol,CCO,0.03748,0.6784192577361741,-0.16850183261182478,3-nitrosalicylic acid,85-38-1,6807,No,10.1021/acs.jced.1c00259
O=C(O)c1cccc([N+](=O)[O-])c1O,283.15,ethanol,CCO,0.04404,0.7975978042516395,-0.0982160502865577,3-nitrosalicylic acid,85-38-1,6807,No,10.1021/acs.jced.1c00259
O=C(O)c1cccc([N+](=O)[O-])c1O,288.15,ethanol,CCO,0.05289,0.9616162946911798,-0.01699818611244042,3-nitrosalicylic acid,85-38-1,6807,No,10.1021/acs.jced.1c00259
O=C(O)c1cccc([N+](=O)[O-])c1O,293.15,ethanol,CCO,0.06206,1.1339856696634139,0.0546075663510437,3-nitrosalicylic acid,85-38-1,6807,No,10.1021/acs.jced.1c00259
O=C(O)c1cccc([N+](=O)[O-])c1O,298.15,ethanol,CCO,0.07185,1.319797506637813,0.1205073035575009,3-nitrosalicylic acid,85-38-1,6807,No,10.1021/acs.jced.1c00259
O=C(O)c1cccc([N+](=O)[O-])c1O,303.15,ethanol,CCO,0.08259,1.5259862974084346,0.183550633889751,3-nitrosalicylic acid,85-38-1,6807,No,10.1021/acs.jced.1c00259
O=C(O)c1cccc([N+](=O)[O-])c1O,308.15,ethanol,CCO,0.09548,1.7789796398425037,0.25017097767658913,3-nitrosalicylic acid,85-38-1,6807,No,10.1021/acs.jced.1c00259
O=C(O)c1cccc([N+](=O)[O-])c1O,313.15,ethanol,CCO,0.1109,2.090658990641278,0.32028320041195435,3-nitrosalicylic acid,85-38-1,6807,No,10.1021/acs.jced.1c00259
O=C(O)c1cccc([N+](=O)[O-])c1O,318.15,ethanol,CCO,0.1255,2.3913237708009043,0.37863838094756286,3-nitrosalicylic acid,85-38-1,6807,No,10.1021/acs.jced.1c00259
O=C(O)c1cccc([N+](=O)[O-])c1O,323.15,ethanol,CCO,0.1455,2.8208533105651004,0.4503805026500399,3-nitrosalicylic acid,85-38-1,6807,No,10.1021/acs.jced.1c00259
COC(=O)c1sccc1S(=O)(=O)NC(=O)Nc1nc(C)nc(OC)n1,278.15,ethanol,CCO,4.012e-05,0.0006990153233294475,-3.155513303847335,Thifensulfuron methyl,79277-27-3,73674,No,10.1021/acs.jced.1c00267
COC(=O)c1sccc1S(=O)(=O)NC(=O)Nc1nc(C)nc(OC)n1,283.15,ethanol,CCO,4.608e-05,0.0007978272086454055,-3.098091156841591,Thifensulfuron methyl,79277-27-3,73674,No,10.1021/acs.jced.1c00267
COC(=O)c1sccc1S(=O)(=O)NC(=O)Nc1nc(C)nc(OC)n1,288.15,ethanol,CCO,5.297e-05,0.000912182312957301,-3.0399183529013896,Thifensulfuron methyl,79277-27-3,73674,No,10.1021/acs.jced.1c00267
COC(=O)c1sccc1S(=O)(=O)NC(=O)Nc1nc(C)nc(OC)n1,293.15,ethanol,CCO,6.012e-05,0.0010304239278575164,-2.986984064953375,Thifensulfuron methyl,79277-27-3,73674,No,10.1021/acs.jced.1c00267
COC(=O)c1sccc1S(=O)(=O)NC(=O)Nc1nc(C)nc(OC)n1,298.15,ethanol,CCO,6.699e-05,0.0011421884711847593,-2.942262227752153,Thifensulfuron methyl,79277-27-3,73674,No,10.1021/acs.jced.1c00267
COC(=O)c1sccc1S(=O)(=O)NC(=O)Nc1nc(C)nc(OC)n1,303.15,ethanol,CCO,7.41e-05,0.0012561370572679365,-2.9009629720894607,Thifensulfuron methyl,79277-27-3,73674,No,10.1021/acs.jced.1c00267
COC(=O)c1sccc1S(=O)(=O)NC(=O)Nc1nc(C)nc(OC)n1,308.15,ethanol,CCO,8.24e-05,0.0013888001042800396,-2.8573602595579604,Thifensulfuron methyl,79277-27-3,73674,No,10.1021/acs.jced.1c00267
COC(=O)c1sccc1S(=O)(=O)NC(=O)Nc1nc(C)nc(OC)n1,313.15,ethanol,CCO,9.042e-05,0.0015156748276040047,-2.819393962110874,Thifensulfuron methyl,79277-27-3,73674,No,10.1021/acs.jced.1c00267
COC(=O)c1sccc1S(=O)(=O)NC(=O)Nc1nc(C)nc(OC)n1,318.15,ethanol,CCO,9.844e-05,0.0016404720222645737,-2.785031171970846,Thifensulfuron methyl,79277-27-3,73674,No,10.1021/acs.jced.1c00267
COC(=O)c1sccc1S(=O)(=O)NC(=O)Nc1nc(C)nc(OC)n1,323.15,ethanol,CCO,0.0001083,0.0017943413674791995,-2.74609493035034,Thifensulfuron methyl,79277-27-3,73674,No,10.1021/acs.jced.1c00267
CC(C)(Oc1ccc(C2CC2(Cl)Cl)cc1)C(=O)O,278.15,ethanol,CCO,0.1557,3.212921915131042,0.5069001708550378,Ciprofibrate,52214-84-3,2763,Yes,10.1021/acs.jced.1c00276
CC(C)(Oc1ccc(C2CC2(Cl)Cl)cc1)C(=O)O,283.15,ethanol,CCO,0.1711,3.5737505063327966,0.5531242298973567,Ciprofibrate,52214-84-3,2763,Yes,10.1021/acs.jced.1c00276
CC(C)(Oc1ccc(C2CC2(Cl)Cl)cc1)C(=O)O,288.15,ethanol,CCO,0.1872,3.9659827273810273,0.5983508184372509,Ciprofibrate,52214-84-3,2763,Yes,10.1021/acs.jced.1c00276
CC(C)(Oc1ccc(C2CC2(Cl)Cl)cc1)C(=O)O,293.15,ethanol,CCO,0.2033,4.373341728829255,0.6408134140350823,Ciprofibrate,52214-84-3,2763,Yes,10.1021/acs.jced.1c00276
CC(C)(Oc1ccc(C2CC2(Cl)Cl)cc1)C(=O)O,298.15,ethanol,CCO,0.2188,4.775114427137094,0.6789837831404537,Ciprofibrate,52214-84-3,2763,Yes,10.1021/acs.jced.1c00276
CC(C)(Oc1ccc(C2CC2(Cl)Cl)cc1)C(=O)O,303.15,ethanol,CCO,0.2392,5.329387622036975,0.7266773089047447,Ciprofibrate,52214-84-3,2763,Yes,10.1021/acs.jced.1c00276
CC(C)(Oc1ccc(C2CC2(Cl)Cl)cc1)C(=O)O,308.15,ethanol,CCO,0.2585,5.875247054950425,0.7690261334707166,Ciprofibrate,52214-84-3,2763,Yes,10.1021/acs.jced.1c00276
CC(C)(Oc1ccc(C2CC2(Cl)Cl)cc1)C(=O)O,313.15,ethanol,CCO,0.2769,6.418401175301978,0.8074268587200395,Ciprofibrate,52214-84-3,2763,Yes,10.1021/acs.jced.1c00276
CC(C)(Oc1ccc(C2CC2(Cl)Cl)cc1)C(=O)O,318.15,ethanol,CCO,0.2943,6.949036832525299,0.8419246136106783,Ciprofibrate,52214-84-3,2763,Yes,10.1021/acs.jced.1c00276
CC(C)(Oc1ccc(C2CC2(Cl)Cl)cc1)C(=O)O,323.15,ethanol,CCO,0.3123,7.523198767104668,0.8764025362730457,Ciprofibrate,52214-84-3,2763,Yes,10.1021/acs.jced.1c00276
CNC(=O)c1cc(Oc2ccc(NC(=O)Nc3ccc(Cl)c(C(F)(F)F)c3)cc2)ccn1,273.15,ethanol,CCO,0.0006450000000000001,0.011305921567271372,-1.9466940317026642,Sorafenib,284461-73-0,216239,Yes,10.1021/acs.jced.1c00279
CNC(=O)c1cc(Oc2ccc(NC(=O)Nc3ccc(Cl)c(C(F)(F)F)c3)cc2)ccn1,278.15,ethanol,CCO,0.000727,0.012675310457003566,-1.8970413946682116,Sorafenib,284461-73-0,216239,Yes,10.1021/acs.jced.1c00279
CNC(=O)c1cc(Oc2ccc(NC(=O)Nc3ccc(Cl)c(C(F)(F)F)c3)cc2)ccn1,283.15,ethanol,CCO,0.0008169999999999999,0.014156418080358859,-1.8490466198610505,Sorafenib,284461-73-0,216239,Yes,10.1021/acs.jced.1c00279
CNC(=O)c1cc(Oc2ccc(NC(=O)Nc3ccc(Cl)c(C(F)(F)F)c3)cc2)ccn1,288.15,ethanol,CCO,0.0009220000000000001,0.01589132809441601,-1.7988398057521102,Sorafenib,284461-73-0,216239,Yes,10.1021/acs.jced.1c00279
CNC(=O)c1cc(Oc2ccc(NC(=O)Nc3ccc(Cl)c(C(F)(F)F)c3)cc2)ccn1,293.15,ethanol,CCO,0.001027,0.017619255191278882,-1.754012454218773,Sorafenib,284461-73-0,216239,Yes,10.1021/acs.jced.1c00279
CNC(=O)c1cc(Oc2ccc(NC(=O)Nc3ccc(Cl)c(C(F)(F)F)c3)cc2)ccn1,298.15,ethanol,CCO,0.0011439999999999998,0.019526384723010444,-1.7093781581554812,Sorafenib,284461-73-0,216239,Yes,10.1021/acs.jced.1c00279
CNC(=O)c1cc(Oc2ccc(NC(=O)Nc3ccc(Cl)c(C(F)(F)F)c3)cc2)ccn1,303.15,ethanol,CCO,0.001268,0.021520726384769883,-1.6671430741035422,Sorafenib,284461-73-0,216239,Yes,10.1021/acs.jced.1c00279
CNC(=O)c1cc(Oc2ccc(NC(=O)Nc3ccc(Cl)c(C(F)(F)F)c3)cc2)ccn1,308.15,ethanol,CCO,0.0014019999999999998,0.023661052715158212,-1.6259659368757307,Sorafenib,284461-73-0,216239,Yes,10.1021/acs.jced.1c00279
CNC(=O)c1cc(Oc2ccc(NC(=O)Nc3ccc(Cl)c(C(F)(F)F)c3)cc2)ccn1,313.15,ethanol,CCO,0.001554,0.02608727387005046,-1.5835713024656335,Sorafenib,284461-73-0,216239,Yes,10.1021/acs.jced.1c00279
CNc1nc(C)nc(OC)n1,278.15,ethanol,CCO,0.04965,0.910215069374442,-0.04085597866044289,"2-methyl-4-methylamino-6-methoxy-1,3,5-triazine",5248-39-5,160779,No,10.1021/acs.jced.1c00288
CNc1nc(C)nc(OC)n1,283.15,ethanol,CCO,0.05699,1.0463060072919228,0.019658718797551693,"2-methyl-4-methylamino-6-methoxy-1,3,5-triazine",5248-39-5,160779,No,10.1021/acs.jced.1c00288
CNc1nc(C)nc(OC)n1,288.15,ethanol,CCO,0.06547,1.2063623159912917,0.08147776236799581,"2-methyl-4-methylamino-6-methoxy-1,3,5-triazine",5248-39-5,160779,No,10.1021/acs.jced.1c00288
CNc1nc(C)nc(OC)n1,293.15,ethanol,CCO,0.07372,1.3639984981419067,0.13481389213201317,"2-methyl-4-methylamino-6-methoxy-1,3,5-triazine",5248-39-5,160779,No,10.1021/acs.jced.1c00288
CNc1nc(C)nc(OC)n1,298.15,ethanol,CCO,0.08176,1.5180405600149969,0.18128337548263182,"2-methyl-4-methylamino-6-methoxy-1,3,5-triazine",5248-39-5,160779,No,10.1021/acs.jced.1c00288
CNc1nc(C)nc(OC)n1,303.15,ethanol,CCO,0.09143,1.7057562235564983,0.23191696450496402,"2-methyl-4-methylamino-6-methoxy-1,3,5-triazine",5248-39-5,160779,No,10.1021/acs.jced.1c00288
CNc1nc(C)nc(OC)n1,308.15,ethanol,CCO,0.1009,1.8912977677729104,0.2767599099767595,"2-methyl-4-methylamino-6-methoxy-1,3,5-triazine",5248-39-5,160779,No,10.1021/acs.jced.1c00288
CNc1nc(C)nc(OC)n1,313.15,ethanol,CCO,0.1106,2.084300181588211,0.3189602663641061,"2-methyl-4-methylamino-6-methoxy-1,3,5-triazine",5248-39-5,160779,No,10.1021/acs.jced.1c00288
CNc1nc(C)nc(OC)n1,318.15,ethanol,CCO,0.1229,2.334840622976447,0.3682572408232485,"2-methyl-4-methylamino-6-methoxy-1,3,5-triazine",5248-39-5,160779,No,10.1021/acs.jced.1c00288
CNc1nc(C)nc(OC)n1,323.15,ethanol,CCO,0.1364,2.6165637059041793,0.4177313130431364,"2-methyl-4-methylamino-6-methoxy-1,3,5-triazine",5248-39-5,160779,No,10.1021/acs.jced.1c00288
O=C1CCc2cc(OCCCCc3nnnn3C3CCCCC3)ccc2N1,273.15,ethanol,CCO,0.000168,0.0029433932709075914,-2.531151707328032,Cilostazol,73963-72-1,2754,Yes,10.1021/acs.jced.1c00302
O=C1CCc2cc(OCCCCc3nnnn3C3CCCCC3)ccc2N1,278.15,ethanol,CCO,0.000282,0.004914506843855653,-2.30852005580494,Cilostazol,73963-72-1,2754,Yes,10.1021/acs.jced.1c00302
O=C1CCc2cc(OCCCCc3nnnn3C3CCCCC3)ccc2N1,283.15,ethanol,CCO,0.000406,0.007031998232941823,-2.1529212470673493,Cilostazol,73963-72-1,2754,Yes,10.1021/acs.jced.1c00302
O=C1CCc2cc(OCCCCc3nnnn3C3CCCCC3)ccc2N1,288.15,ethanol,CCO,0.00054,0.009303728130927138,-2.0313429888388552,Cilostazol,73963-72-1,2754,Yes,10.1021/acs.jced.1c00302
O=C1CCc2cc(OCCCCc3nnnn3C3CCCCC3)ccc2N1,293.15,ethanol,CCO,0.00069,0.011833676969510357,-1.926880290076238,Cilostazol,73963-72-1,2754,Yes,10.1021/acs.jced.1c00302
O=C1CCc2cc(OCCCCc3nnnn3C3CCCCC3)ccc2N1,298.15,ethanol,CCO,0.000847,0.01445273746376954,-1.840049886276837,Cilostazol,73963-72-1,2754,Yes,10.1021/acs.jced.1c00302
O=C1CCc2cc(OCCCCc3nnnn3C3CCCCC3)ccc2N1,303.15,ethanol,CCO,0.001018,0.017273357140013997,-1.7626232475112158,Cilostazol,73963-72-1,2754,Yes,10.1021/acs.jced.1c00302
O=C1CCc2cc(OCCCCc3nnnn3C3CCCCC3)ccc2N1,308.15,ethanol,CCO,0.001224,0.020653328905081897,-1.685009938748958,Cilostazol,73963-72-1,2754,Yes,10.1021/acs.jced.1c00302
O=C1CCc2cc(OCCCCc3nnnn3C3CCCCC3)ccc2N1,313.15,ethanol,CCO,0.001443,0.024221204426840302,-1.6158042648707076,Cilostazol,73963-72-1,2754,Yes,10.1021/acs.jced.1c00302
CN(C)C(=N)N=C(N)N.Cl,283.15,ethanol,CCO,0.0013,0.022536406229963543,-1.6471153375770629,Metformin hydrochloride,1115-70-4,14219,No,10.1021/acs.jced.1c00338
CN(C)C(=N)N=C(N)N.Cl,288.15,ethanol,CCO,0.001472,0.025384945271491557,-1.595423768572744,Metformin hydrochloride,1115-70-4,14219,No,10.1021/acs.jced.1c00338
CN(C)C(=N)N=C(N)N.Cl,293.15,ethanol,CCO,0.001602,0.02749980801897834,-1.5606703380457143,Metformin hydrochloride,1115-70-4,14219,No,10.1021/acs.jced.1c00338
CN(C)C(=N)N=C(N)N.Cl,298.15,ethanol,CCO,0.001832,0.03129107810407405,-1.5045794733963365,Metformin hydrochloride,1115-70-4,14219,No,10.1021/acs.jced.1c00338
CN(C)C(=N)N=C(N)N.Cl,303.15,ethanol,CCO,0.002118,0.035977700694097094,-1.4439665955144878,Metformin hydrochloride,1115-70-4,14219,No,10.1021/acs.jced.1c00338
CN(C)C(=N)N=C(N)N.Cl,308.15,ethanol,CCO,0.002253,0.03805550614383975,-1.4195824975035667,Metformin hydrochloride,1115-70-4,14219,No,10.1021/acs.jced.1c00338
CN(C)C(=N)N=C(N)N.Cl,313.15,ethanol,CCO,0.002449,0.041148683144049195,-1.3856440586880159,Metformin hydrochloride,1115-70-4,14219,No,10.1021/acs.jced.1c00338
CN(C)C(=N)N=C(N)N.Cl,318.15,ethanol,CCO,0.002754,0.04601676686003682,-1.337083898143937,Metformin hydrochloride,1115-70-4,14219,No,10.1021/acs.jced.1c00338
CN(C)C(=N)N=C(N)N.Cl,323.15,ethanol,CCO,0.003426,0.056951790519444094,-1.244492617493741,Metformin hydrochloride,1115-70-4,14219,No,10.1021/acs.jced.1c00338
CC(C)(c1ccc(O)cc1)c1ccc(O)cc1,273.15,ethanol,CCO,0.2088,4.622854866620556,0.6649102590847965,Bisphenol A,80-05-7,6623,No,10.1021/acs.jced.1c00340
CC(C)(c1ccc(O)cc1)c1ccc(O)cc1,278.15,ethanol,CCO,0.2139,4.740687584325547,0.6758413358559513,Bisphenol A,80-05-7,6623,No,10.1021/acs.jced.1c00340
CC(C)(c1ccc(O)cc1)c1ccc(O)cc1,283.15,ethanol,CCO,0.2198,4.877509254658408,0.6881981021041294,Bisphenol A,80-05-7,6623,No,10.1021/acs.jced.1c00340
CC(C)(c1ccc(O)cc1)c1ccc(O)cc1,288.15,ethanol,CCO,0.2263,5.036636704445105,0.702140626072137,Bisphenol A,80-05-7,6623,No,10.1021/acs.jced.1c00340
CC(C)(c1ccc(O)cc1)c1ccc(O)cc1,293.15,ethanol,CCO,0.2317,5.1685182388322115,0.7133660531644943,Bisphenol A,80-05-7,6623,No,10.1021/acs.jced.1c00340
CC(C)(c1ccc(O)cc1)c1ccc(O)cc1,298.15,ethanol,CCO,0.2383,5.333825297637563,0.7270387868479488,Bisphenol A,80-05-7,6623,No,10.1021/acs.jced.1c00340
CC(C)(c1ccc(O)cc1)c1ccc(O)cc1,303.15,ethanol,CCO,0.245,5.500545611182996,0.7404057702530733,Bisphenol A,80-05-7,6623,No,10.1021/acs.jced.1c00340
CC(C)(c1ccc(O)cc1)c1ccc(O)cc1,308.15,ethanol,CCO,0.2523,5.686782408160268,0.7548666112760513,Bisphenol A,80-05-7,6623,No,10.1021/acs.jced.1c00340
CC(C)(c1ccc(O)cc1)c1ccc(O)cc1,313.15,ethanol,CCO,0.2604,5.901281639747917,0.7709463419173613,Bisphenol A,80-05-7,6623,No,10.1021/acs.jced.1c00340
NC(=O)c1ncn([C@@H]2O[C@H](CO)[C@@H](O)[C@H]2O)n1,283.15,ethanol,CCO,5.9499999999999996e-05,0.0010301943578419402,-2.987080832988561,Ribavirin(II),36791-04-5,37542,Yes,10.1021/acs.jced.1c00345
NC(=O)c1ncn([C@@H]2O[C@H](CO)[C@@H](O)[C@H]2O)n1,288.15,ethanol,CCO,8.55e-05,0.00147242071061236,-2.8319680825311253,Ribavirin(II),36791-04-5,37542,Yes,10.1021/acs.jced.1c00345
NC(=O)c1ncn([C@@H]2O[C@H](CO)[C@@H](O)[C@H]2O)n1,293.15,ethanol,CCO,0.0001173,0.0020105728347017482,-2.696680189591107,Ribavirin(II),36791-04-5,37542,Yes,10.1021/acs.jced.1c00345
NC(=O)c1ncn([C@@H]2O[C@H](CO)[C@@H](O)[C@H]2O)n1,298.15,ethanol,CCO,0.0001575,0.0026856391856147003,-2.570952335011429,Ribavirin(II),36791-04-5,37542,Yes,10.1021/acs.jced.1c00345
NC(=O)c1ncn([C@@H]2O[C@H](CO)[C@@H](O)[C@H]2O)n1,303.15,ethanol,CCO,0.0002087,0.003538341395260162,-2.4512002666991295,Ribavirin(II),36791-04-5,37542,Yes,10.1021/acs.jced.1c00345
NC(=O)c1ncn([C@@H]2O[C@H](CO)[C@@H](O)[C@H]2O)n1,308.15,ethanol,CCO,0.00028199999999999997,0.004753881348626574,-2.3229516619599218,Ribavirin(II),36791-04-5,37542,Yes,10.1021/acs.jced.1c00345
NC(=O)c1ncn([C@@H]2O[C@H](CO)[C@@H](O)[C@H]2O)n1,313.15,ethanol,CCO,0.0003392,0.00568729094144127,-2.2450945542288365,Ribavirin(II),36791-04-5,37542,Yes,10.1021/acs.jced.1c00345
NC(=O)c1ncn([C@@H]2O[C@H](CO)[C@@H](O)[C@H]2O)n1,318.15,ethanol,CCO,0.0004351,0.007253248466931479,-2.139467445112497,Ribavirin(II),36791-04-5,37542,Yes,10.1021/acs.jced.1c00345
NC(=O)c1ncn([C@@H]2O[C@H](CO)[C@@H](O)[C@H]2O)n1,323.15,ethanol,CCO,0.0005518999999999999,0.009148075152746911,-2.0386702762592965,Ribavirin(II),36791-04-5,37542,Yes,10.1021/acs.jced.1c00345
COCCOc1ccccc1S(=O)(=O)NC(=O)Nc1nc(OC)nc(OC)n1,278.15,ethanol,CCO,0.001515,0.02643500734706134,-1.5778205645557204,Cinosulfuron,94593-91-6,92420,No,10.1021/acs.jced.1c00357