SMILES_Solute,Temperature_K,Solvent,SMILES_Solvent,Solubility(mole_fraction),Solubility(mol/L),LogS(mol/L),Compound_Name,CAS,PubChem_CID,FDA_Approved,Source
c1ccc2c(c1)sc1ccccc12,327.35,ethanol,CCO,0.0197,0.33136493020394125,-0.47969345676412556,Dibenzothiophene,132-65-0,3023,No,10.1016/j.jct.2018.09.017
c1ccc2c(c1)sc1ccccc12,331.15,ethanol,CCO,0.0239,0.40197619746073576,-0.3957996623819664,Dibenzothiophene,132-65-0,3023,No,10.1016/j.jct.2018.09.017
Cc1c(C(=O)/C=C/c2ccccc2)[n+](=O)c2ccccc2n1[O-],283.15,ethanol,CCO,9.805999999999999e-05,0.0016978950332152969,-2.770089162092342,Quinocetone,81810-66-4,5387181,No,10.1016/j.jct.2018.11.021
Cc1c(C(=O)/C=C/c2ccccc2)[n+](=O)c2ccccc2n1[O-],288.15,ethanol,CCO,0.0001228,0.0021148538997219127,-2.6747196295826514,Quinocetone,81810-66-4,5387181,No,10.1016/j.jct.2018.11.021
Cc1c(C(=O)/C=C/c2ccccc2)[n+](=O)c2ccccc2n1[O-],293.15,ethanol,CCO,0.0001507,0.002583149596691889,-2.5878504420123187,Quinocetone,81810-66-4,5387181,No,10.1016/j.jct.2018.11.021
Cc1c(C(=O)/C=C/c2ccccc2)[n+](=O)c2ccccc2n1[O-],298.15,ethanol,CCO,0.0001898,0.003236512920467701,-2.4899226548976725,Quinocetone,81810-66-4,5387181,No,10.1016/j.jct.2018.11.021
Cc1c(C(=O)/C=C/c2ccccc2)[n+](=O)c2ccccc2n1[O-],303.15,ethanol,CCO,0.0002331,0.003952120310203088,-2.403169843117301,Quinocetone,81810-66-4,5387181,No,10.1016/j.jct.2018.11.021
Cc1c(C(=O)/C=C/c2ccccc2)[n+](=O)c2ccccc2n1[O-],308.15,ethanol,CCO,0.0002883,0.004860115708249006,-2.31335339105543,Quinocetone,81810-66-4,5387181,No,10.1016/j.jct.2018.11.021
Cc1c(C(=O)/C=C/c2ccccc2)[n+](=O)c2ccccc2n1[O-],313.15,ethanol,CCO,0.0003508,0.005881853813556473,-2.2304857735648733,Quinocetone,81810-66-4,5387181,No,10.1016/j.jct.2018.11.021
Cc1c(C(=O)/C=C/c2ccccc2)[n+](=O)c2ccccc2n1[O-],318.15,ethanol,CCO,0.0004247,0.007079803662527997,-2.1499787860196946,Quinocetone,81810-66-4,5387181,No,10.1016/j.jct.2018.11.021
Cc1c(C(=O)/C=C/c2ccccc2)[n+](=O)c2ccccc2n1[O-],323.15,ethanol,CCO,0.0005124999999999999,0.008494661530270776,-2.0708539209107886,Quinocetone,81810-66-4,5387181,No,10.1016/j.jct.2018.11.021
Cc1c(C(=O)/C=C/c2ccccc2)[n+](=O)c2ccccc2n1[O-],328.15,ethanol,CCO,0.0006108,0.010063949052744594,-1.9972315704449008,Quinocetone,81810-66-4,5387181,No,10.1016/j.jct.2018.11.021
COc1cc(/C=C/C(=O)CC(=O)/C=C/c2ccc(O)c(OC)c2)ccc1O,278.15,ethanol,CCO,0.0004066,0.007086835335118124,-2.1495476580922115,Curcumin,458-37-7,969516,No,10.1016/j.jct.2018.11.022
COc1cc(/C=C/C(=O)CC(=O)/C=C/c2ccc(O)c(OC)c2)ccc1O,283.15,ethanol,CCO,0.0004971,0.008610652536234907,-2.064963935404918,Curcumin,458-37-7,969516,No,10.1016/j.jct.2018.11.022
COc1cc(/C=C/C(=O)CC(=O)/C=C/c2ccc(O)c(OC)c2)ccc1O,288.15,ethanol,CCO,0.0005727999999999999,0.009869167352836432,-2.005719486572765,Curcumin,458-37-7,969516,No,10.1016/j.jct.2018.11.022
COc1cc(/C=C/C(=O)CC(=O)/C=C/c2ccc(O)c(OC)c2)ccc1O,293.15,ethanol,CCO,0.0006617000000000001,0.011348003340955645,-1.9450805450159114,Curcumin,458-37-7,969516,No,10.1016/j.jct.2018.11.022
COc1cc(/C=C/C(=O)CC(=O)/C=C/c2ccc(O)c(OC)c2)ccc1O,298.15,ethanol,CCO,0.000769,0.013120764508120338,-1.8820408591688276,Curcumin,458-37-7,969516,No,10.1016/j.jct.2018.11.022
COc1cc(/C=C/C(=O)CC(=O)/C=C/c2ccc(O)c(OC)c2)ccc1O,303.15,ethanol,CCO,0.0008881000000000001,0.015067263239565391,-1.8219656241214175,Curcumin,458-37-7,969516,No,10.1016/j.jct.2018.11.022
COc1cc(/C=C/C(=O)CC(=O)/C=C/c2ccc(O)c(OC)c2)ccc1O,308.15,ethanol,CCO,0.001006,0.01697117228517271,-1.770288157717818,Curcumin,458-37-7,969516,No,10.1016/j.jct.2018.11.022
COc1cc(/C=C/C(=O)CC(=O)/C=C/c2ccc(O)c(OC)c2)ccc1O,313.15,ethanol,CCO,0.001131,0.018978257480473087,-1.7217436655312741,Curcumin,458-37-7,969516,No,10.1016/j.jct.2018.11.022
COc1cc(/C=C/C(=O)CC(=O)/C=C/c2ccc(O)c(OC)c2)ccc1O,318.15,ethanol,CCO,0.001283,0.0214061558429377,-1.6694613171098756,Curcumin,458-37-7,969516,No,10.1016/j.jct.2018.11.022
Nc1cccc2c1CN(C1CCC(=O)NC1=O)C2=O,293.15,ethanol,CCO,0.0001643,0.002816305585143218,-2.5503202235565294,Lenalidomide,191732-72-6,216326,Yes,10.1016/j.jct.2018.12.035
Nc1cccc2c1CN(C1CCC(=O)NC1=O)C2=O,298.15,ethanol,CCO,0.0001828,0.003117125498747992,-2.506245712218976,Lenalidomide,191732-72-6,216326,Yes,10.1016/j.jct.2018.12.035
Nc1cccc2c1CN(C1CCC(=O)NC1=O)C2=O,303.15,ethanol,CCO,0.00020870000000000003,0.0035383413952601622,-2.4512002666991295,Lenalidomide,191732-72-6,216326,Yes,10.1016/j.jct.2018.12.035
Nc1cccc2c1CN(C1CCC(=O)NC1=O)C2=O,308.15,ethanol,CCO,0.00023849999999999997,0.004020394927486565,-2.3957312836309894,Lenalidomide,191732-72-6,216326,Yes,10.1016/j.jct.2018.12.035
Nc1cccc2c1CN(C1CCC(=O)NC1=O)C2=O,313.15,ethanol,CCO,0.0002703,0.00453174762560274,-2.343734284126383,Lenalidomide,191732-72-6,216326,Yes,10.1016/j.jct.2018.12.035
Nc1cccc2c1CN(C1CCC(=O)NC1=O)C2=O,318.15,ethanol,CCO,0.00030859999999999997,0.005143804270050961,-2.2887155653665068,Lenalidomide,191732-72-6,216326,Yes,10.1016/j.jct.2018.12.035
Nc1cccc2c1CN(C1CCC(=O)NC1=O)C2=O,323.15,ethanol,CCO,0.0003571,0.0059179942769232345,-2.2278254591655617,Lenalidomide,191732-72-6,216326,Yes,10.1016/j.jct.2018.12.035
Nc1cccc2c1CN(C1CCC(=O)NC1=O)C2=O,328.15,ethanol,CCO,0.00040359999999999994,0.006648604929403434,-2.177269472745351,Lenalidomide,191732-72-6,216326,Yes,10.1016/j.jct.2018.12.035
Nc1cccc2c1CN(C1CCC(=O)NC1=O)C2=O,333.15,ethanol,CCO,0.0004596,0.007529611383230973,-2.123227437939227,Lenalidomide,191732-72-6,216326,Yes,10.1016/j.jct.2018.12.035
CCCc1cc(=O)[nH]c(=S)[nH]1,278.15,ethanol,CCO,0.002501,0.043682709688374385,-1.3596904296849879,Propylthiouracil,51-52-5,657298,Yes,10.1016/j.jct.2018.12.038
CCCc1cc(=O)[nH]c(=S)[nH]1,283.15,ethanol,CCO,0.002991,0.0519390132235339,-1.2845063056817845,Propylthiouracil,51-52-5,657298,Yes,10.1016/j.jct.2018.12.038
CCCc1cc(=O)[nH]c(=S)[nH]1,288.15,ethanol,CCO,0.003556,0.061452212665777974,-1.2114624751658531,Propylthiouracil,51-52-5,657298,Yes,10.1016/j.jct.2018.12.038
CCCc1cc(=O)[nH]c(=S)[nH]1,293.15,ethanol,CCO,0.004203,0.07233682269663902,-1.1406405709907859,Propylthiouracil,51-52-5,657298,Yes,10.1016/j.jct.2018.12.038
CCCc1cc(=O)[nH]c(=S)[nH]1,298.15,ethanol,CCO,0.004942,0.0846745788975666,-1.0722469545052145,Propylthiouracil,51-52-5,657298,Yes,10.1016/j.jct.2018.12.038
CCCc1cc(=O)[nH]c(=S)[nH]1,303.15,ethanol,CCO,0.005782,0.09857870376522915,-1.0062168967849605,Propylthiouracil,51-52-5,657298,Yes,10.1016/j.jct.2018.12.038
CCCc1cc(=O)[nH]c(=S)[nH]1,308.15,ethanol,CCO,0.006731999999999999,0.11422322149486483,-0.9422455953731939,Propylthiouracil,51-52-5,657298,Yes,10.1016/j.jct.2018.12.038
CCCc1cc(=O)[nH]c(=S)[nH]1,313.15,ethanol,CCO,0.007853,0.1326666731068308,-0.8772381615636051,Propylthiouracil,51-52-5,657298,Yes,10.1016/j.jct.2018.12.038
CCCc1cc(=O)[nH]c(=S)[nH]1,318.15,ethanol,CCO,0.009158,0.15401063123192835,-0.8124492991245644,Propylthiouracil,51-52-5,657298,Yes,10.1016/j.jct.2018.12.038
CCCc1cc(=O)[nH]c(=S)[nH]1,323.15,ethanol,CCO,0.01055,0.176639644979007,-0.7529118168212142,Propylthiouracil,51-52-5,657298,Yes,10.1016/j.jct.2018.12.038
CCCc1cc(=O)[nH]c(=S)[nH]1,328.15,ethanol,CCO,0.01217,0.2028674731977871,-0.6927875800889758,Propylthiouracil,51-52-5,657298,Yes,10.1016/j.jct.2018.12.038
CCCc1cc(=O)[nH]c(=S)[nH]1,333.15,ethanol,CCO,0.01404,0.233185051422015,-0.6322992939345405,Propylthiouracil,51-52-5,657298,Yes,10.1016/j.jct.2018.12.038
c1ccc2c(c1)CCc1ccccc1N2,283.15,ethanol,CCO,0.000769,0.013324066780842062,-1.875363199271275,Iminodibenzyl,494-19-9,10308,No,10.1016/j.jct.2018.12.045
c1ccc2c(c1)CCc1ccccc1N2,288.15,ethanol,CCO,0.0010249999999999999,0.017668428140102586,-1.7528020854929318,Iminodibenzyl,494-19-9,10308,No,10.1016/j.jct.2018.12.045
c1ccc2c(c1)CCc1ccccc1N2,293.15,ethanol,CCO,0.0013620000000000001,0.023374367743258642,-1.6312601275924516,Iminodibenzyl,494-19-9,10308,No,10.1016/j.jct.2018.12.045
c1ccc2c(c1)CCc1ccccc1N2,298.15,ethanol,CCO,0.001748,0.02985382202458344,-1.5250000605839011,Iminodibenzyl,494-19-9,10308,No,10.1016/j.jct.2018.12.045
c1ccc2c(c1)CCc1ccccc1N2,303.15,ethanol,CCO,0.002271,0.03858257207286082,-1.4136088238715916,Iminodibenzyl,494-19-9,10308,No,10.1016/j.jct.2018.12.045
c1ccc2c(c1)CCc1ccccc1N2,308.15,ethanol,CCO,0.0028399999999999996,0.047998783714561344,-1.318769767473308,Iminodibenzyl,494-19-9,10308,No,10.1016/j.jct.2018.12.045
c1ccc2c(c1)CCc1ccccc1N2,313.15,ethanol,CCO,0.003598,0.060524168673656245,-1.2180711670729005,Iminodibenzyl,494-19-9,10308,No,10.1016/j.jct.2018.12.045
c1ccc2c(c1)CCc1ccccc1N2,318.15,ethanol,CCO,0.004526,0.07575984841753103,-1.1205609029527197,Iminodibenzyl,494-19-9,10308,No,10.1016/j.jct.2018.12.045
c1ccc2c(c1)CCc1ccccc1N2,323.15,ethanol,CCO,0.0055839999999999996,0.09302654307048548,-1.031393117421032,Iminodibenzyl,494-19-9,10308,No,10.1016/j.jct.2018.12.045
c1ccc2c(c1)CCc1ccccc1N2,328.15,ethanol,CCO,0.006914,0.11464274303153024,-0.9406534312184809,Iminodibenzyl,494-19-9,10308,No,10.1016/j.jct.2018.12.045
Cc1c(C(N)=O)cc([N+](=O)[O-])cc1[N+](=O)[O-],283.15,ethanol,CCO,0.002113,0.03666017148823147,-1.4358055078348375,Dinitolmide,148-01-6,3092,No,10.1016/j.jct.2019.01.013
Cc1c(C(N)=O)cc([N+](=O)[O-])cc1[N+](=O)[O-],288.15,ethanol,CCO,0.002506,0.0432612878225565,-1.3639005564201543,Dinitolmide,148-01-6,3092,No,10.1016/j.jct.2019.01.013
Cc1c(C(N)=O)cc([N+](=O)[O-])cc1[N+](=O)[O-],293.15,ethanol,CCO,0.002976,0.051156187067243356,-1.2911018331802333,Dinitolmide,148-01-6,3092,No,10.1016/j.jct.2019.01.013
Cc1c(C(N)=O)cc([N+](=O)[O-])cc1[N+](=O)[O-],298.15,ethanol,CCO,0.003428,0.05864497863650873,-1.23176916758621,Dinitolmide,148-01-6,3092,No,10.1016/j.jct.2019.01.013
Cc1c(C(N)=O)cc([N+](=O)[O-])cc1[N+](=O)[O-],303.15,ethanol,CCO,0.003976,0.06766486349438842,-1.1696367899818874,Dinitolmide,148-01-6,3092,No,10.1016/j.jct.2019.01.013
Cc1c(C(N)=O)cc([N+](=O)[O-])cc1[N+](=O)[O-],308.15,ethanol,CCO,0.00463,0.07839226003424006,-1.1057268147435884,Dinitolmide,148-01-6,3092,No,10.1016/j.jct.2019.01.013
Cc1c(C(N)=O)cc([N+](=O)[O-])cc1[N+](=O)[O-],313.15,ethanol,CCO,0.005295,0.08922240550393008,-1.0495260720269286,Dinitolmide,148-01-6,3092,No,10.1016/j.jct.2019.01.013
Cc1c(C(N)=O)cc([N+](=O)[O-])cc1[N+](=O)[O-],318.15,ethanol,CCO,0.006067,0.10171180321616208,-0.9926286461509315,Dinitolmide,148-01-6,3092,No,10.1016/j.jct.2019.01.013
Cc1c(C(N)=O)cc([N+](=O)[O-])cc1[N+](=O)[O-],323.15,ethanol,CCO,0.006972,0.11631225094372791,-0.9343745394671714,Dinitolmide,148-01-6,3092,No,10.1016/j.jct.2019.01.013
Cc1c(C(N)=O)cc([N+](=O)[O-])cc1[N+](=O)[O-],328.15,ethanol,CCO,0.008109,0.1346193235077258,-0.8708925962009036,Dinitolmide,148-01-6,3092,No,10.1016/j.jct.2019.01.013
C=NCC#N,278.15,ethanol,CCO,0.001751,0.030560159024881198,-1.5148443901667437,Methyleneaminoacetonitrile,109-82-0,8015,No,10.1016/j.jct.2019.01.015
C=NCC#N,283.15,ethanol,CCO,0.002132,0.036990522392799395,-1.4319095353861964,Methyleneaminoacetonitrile,109-82-0,8015,No,10.1016/j.jct.2019.01.015
C=NCC#N,288.15,ethanol,CCO,0.0025259999999999996,0.043607423836689696,-1.3604395690605142,Methyleneaminoacetonitrile,109-82-0,8015,No,10.1016/j.jct.2019.01.015
C=NCC#N,293.15,ethanol,CCO,0.0030299999999999997,0.052087245439444166,-1.2832686090115528,Methyleneaminoacetonitrile,109-82-0,8015,No,10.1016/j.jct.2019.01.015
C=NCC#N,298.15,ethanol,CCO,0.003569,0.061065795307095126,-1.214201982375062,Methyleneaminoacetonitrile,109-82-0,8015,No,10.1016/j.jct.2019.01.015
C=NCC#N,303.15,ethanol,CCO,0.004235,0.0720913560800881,-1.142116805069306,Methyleneaminoacetonitrile,109-82-0,8015,No,10.1016/j.jct.2019.01.015
C=NCC#N,308.15,ethanol,CCO,0.005013,0.08490964780998364,-1.0710429604911864,Methyleneaminoacetonitrile,109-82-0,8015,No,10.1016/j.jct.2019.01.015
C=NCC#N,313.15,ethanol,CCO,0.005948,0.10029149863304741,-0.9987358790756429,Methyleneaminoacetonitrile,109-82-0,8015,No,10.1016/j.jct.2019.01.015
C=NCC#N,318.15,ethanol,CCO,0.006954,0.11668627846514563,-0.9329802111117613,Methyleneaminoacetonitrile,109-82-0,8015,No,10.1016/j.jct.2019.01.015
C=NCC#N,323.15,ethanol,CCO,0.008140000000000001,0.13595763613799794,-0.8665963949947454,Methyleneaminoacetonitrile,109-82-0,8015,No,10.1016/j.jct.2019.01.015
O=C1NS(=O)(=O)c2ccccc21,278.15,ethanol,CCO,0.00486,0.08508645574662657,-1.0701395663860023,Saccharin,81-07-2,5143,No,10.1016/j.jct.2019.02.005
O=C1NS(=O)(=O)c2ccccc21,283.15,ethanol,CCO,0.0057799999999999995,0.10065183642436154,-0.997178296863843,Saccharin,81-07-2,5143,No,10.1016/j.jct.2019.02.005
O=C1NS(=O)(=O)c2ccccc21,288.15,ethanol,CCO,0.006860000000000001,0.11894393735035672,-0.9246576893340448,Saccharin,81-07-2,5143,No,10.1016/j.jct.2019.02.005
O=C1NS(=O)(=O)c2ccccc21,293.15,ethanol,CCO,0.00814,0.1406516661592718,-0.8518551188170043,Saccharin,81-07-2,5143,No,10.1016/j.jct.2019.02.005
O=C1NS(=O)(=O)c2ccccc21,298.15,ethanol,CCO,0.00964,0.16595205811547242,-0.7800173571592628,Saccharin,81-07-2,5143,No,10.1016/j.jct.2019.02.005
O=C1NS(=O)(=O)c2ccccc21,303.15,ethanol,CCO,0.011399999999999999,0.1954658456421657,-0.7089291172705564,Saccharin,81-07-2,5143,No,10.1016/j.jct.2019.02.005
O=C1NS(=O)(=O)c2ccccc21,308.15,ethanol,CCO,0.0134,0.22889717284216987,-0.6403595713561586,Saccharin,81-07-2,5143,No,10.1016/j.jct.2019.02.005
O=C1NS(=O)(=O)c2ccccc21,313.15,ethanol,CCO,0.0158,0.26907663679051225,-0.5701240092352968,Saccharin,81-07-2,5143,No,10.1016/j.jct.2019.02.005
O=C1NS(=O)(=O)c2ccccc21,318.15,ethanol,CCO,0.019,0.3227297953039416,-0.4911609374819184,Saccharin,81-07-2,5143,No,10.1016/j.jct.2019.02.005
O=C1NS(=O)(=O)c2ccccc21,323.15,ethanol,CCO,0.0231,0.3917341619209864,-0.4070085533261666,Saccharin,81-07-2,5143,No,10.1016/j.jct.2019.02.005
COc1ccccc1N1CCN(CC(O)COc2cccc3ccccc23)CC1,288.15,ethanol,CCO,0.001421,0.024504188138944474,-1.6107596817503025,Naftopidil,57149-07-2,4418,Yes,10.1016/j.jct.2019.02.016
COc1ccccc1N1CCN(CC(O)COc2cccc3ccccc23)CC1,293.15,ethanol,CCO,0.0016330000000000001,0.028032822031727786,-1.552333180116433,Naftopidil,57149-07-2,4418,Yes,10.1016/j.jct.2019.02.016
COc1ccccc1N1CCN(CC(O)COc2cccc3ccccc23)CC1,298.15,ethanol,CCO,0.001895,0.032369178922021805,-1.489868316790128,Naftopidil,57149-07-2,4418,Yes,10.1016/j.jct.2019.02.016
COc1ccccc1N1CCN(CC(O)COc2cccc3ccccc23)CC1,303.15,ethanol,CCO,0.002162,0.036726732201509925,-1.435017711730588,Naftopidil,57149-07-2,4418,Yes,10.1016/j.jct.2019.02.016
COc1ccccc1N1CCN(CC(O)COc2cccc3ccccc23)CC1,308.15,ethanol,CCO,0.00244,0.04122185593831388,-1.3848724588056334,Naftopidil,57149-07-2,4418,Yes,10.1016/j.jct.2019.02.016
COc1ccccc1N1CCN(CC(O)COc2cccc3ccccc23)CC1,313.15,ethanol,CCO,0.002767,0.0465066205371375,-1.3324852179040325,Naftopidil,57149-07-2,4418,Yes,10.1016/j.jct.2019.02.016
COc1ccccc1N1CCN(CC(O)COc2cccc3ccccc23)CC1,318.15,ethanol,CCO,0.003142,0.05252031849993362,-1.2796726488745567,Naftopidil,57149-07-2,4418,Yes,10.1016/j.jct.2019.02.016
COc1ccccc1N1CCN(CC(O)COc2cccc3ccccc23)CC1,323.15,ethanol,CCO,0.0035510000000000003,0.059037121336217815,-1.228874826968807,Naftopidil,57149-07-2,4418,Yes,10.1016/j.jct.2019.02.016
COc1ccccc1N1CCN(CC(O)COc2cccc3ccccc23)CC1,328.15,ethanol,CCO,0.00397,0.0656329825722342,-1.182877859567073,Naftopidil,57149-07-2,4418,Yes,10.1016/j.jct.2019.02.016
CCc1nnc(NC(=O)CCCCCNC(C)=O)s1,288.15,ethanol,CCO,0.0005780000000000001,0.00995881356470644,-2.0017923978205374,"6-(acetylamino)-N-(5-ethyl-1,3,4-thiadiazol-2-yl) hexanamide",,,No,10.1016/j.jct.2019.03.015
CCc1nnc(NC(=O)CCCCCNC(C)=O)s1,293.15,ethanol,CCO,0.000733,0.012571678953499327,-1.9006067182131576,"6-(acetylamino)-N-(5-ethyl-1,3,4-thiadiazol-2-yl) hexanamide",,,No,10.1016/j.jct.2019.03.015
CCc1nnc(NC(=O)CCCCCNC(C)=O)s1,298.15,ethanol,CCO,0.000965,0.016468168802147798,-1.7833546900431694,"6-(acetylamino)-N-(5-ethyl-1,3,4-thiadiazol-2-yl) hexanamide",,,No,10.1016/j.jct.2019.03.015
CCc1nnc(NC(=O)CCCCCNC(C)=O)s1,303.15,ethanol,CCO,0.0011799999999999998,0.020025409922496015,-1.6984185850936175,"6-(acetylamino)-N-(5-ethyl-1,3,4-thiadiazol-2-yl) hexanamide",,,No,10.1016/j.jct.2019.03.015
CCc1nnc(NC(=O)CCCCCNC(C)=O)s1,308.15,ethanol,CCO,0.0016200000000000001,0.027346130595464455,-1.56310411649409,"6-(acetylamino)-N-(5-ethyl-1,3,4-thiadiazol-2-yl) hexanamide",,,No,10.1016/j.jct.2019.03.015
CCc1nnc(NC(=O)CCCCCNC(C)=O)s1,313.15,ethanol,CCO,0.0021000000000000003,0.03527236148134922,-1.4525654633836267,"6-(acetylamino)-N-(5-ethyl-1,3,4-thiadiazol-2-yl) hexanamide",,,No,10.1016/j.jct.2019.03.015
CCc1nnc(NC(=O)CCCCCNC(C)=O)s1,318.15,ethanol,CCO,0.0026,0.043436862996540135,-1.362141546966325,"6-(acetylamino)-N-(5-ethyl-1,3,4-thiadiazol-2-yl) hexanamide",,,No,10.1016/j.jct.2019.03.015
Cc1c([N+](=O)[O-])c(C)c([N+](=O)[O-])c(C(C)(C)C)c1[N+](=O)[O-],278.15,ethanol,CCO,0.001675,0.029231507442166065,-1.5341487878949154,Musk xylene,81-15-2,62329,No,10.1016/j.jct.2019.03.029
Cc1c([N+](=O)[O-])c(C)c([N+](=O)[O-])c(C(C)(C)C)c1[N+](=O)[O-],283.15,ethanol,CCO,0.002071,0.03592996675789527,-1.444543184600787,Musk xylene,81-15-2,62329,No,10.1016/j.jct.2019.03.029
Cc1c([N+](=O)[O-])c(C)c([N+](=O)[O-])c(C(C)(C)C)c1[N+](=O)[O-],288.15,ethanol,CCO,0.002545,0.043936265907176794,-1.3571768560367903,Musk xylene,81-15-2,62329,No,10.1016/j.jct.2019.03.029
Cc1c([N+](=O)[O-])c(C)c([N+](=O)[O-])c(C(C)(C)C)c1[N+](=O)[O-],293.15,ethanol,CCO,0.00311,0.0534667765849885,-1.2719159979372616,Musk xylene,81-15-2,62329,No,10.1016/j.jct.2019.03.029
Cc1c([N+](=O)[O-])c(C)c([N+](=O)[O-])c(C(C)(C)C)c1[N+](=O)[O-],298.15,ethanol,CCO,0.003783,0.06474125186964343,-1.1888189071141417,Musk xylene,81-15-2,62329,No,10.1016/j.jct.2019.03.029
Cc1c([N+](=O)[O-])c(C)c([N+](=O)[O-])c(C(C)(C)C)c1[N+](=O)[O-],303.15,ethanol,CCO,0.004578,0.07795701310409993,-1.1081448090779904,Musk xylene,81-15-2,62329,No,10.1016/j.jct.2019.03.029
Cc1c([N+](=O)[O-])c(C)c([N+](=O)[O-])c(C(C)(C)C)c1[N+](=O)[O-],308.15,ethanol,CCO,0.005519,0.09352778417348495,-1.0290593546808533,Musk xylene,81-15-2,62329,No,10.1016/j.jct.2019.03.029
Cc1c([N+](=O)[O-])c(C)c([N+](=O)[O-])c(C(C)(C)C)c1[N+](=O)[O-],313.15,ethanol,CCO,0.006627,0.11181675471150827,-0.951493116542887,Musk xylene,81-15-2,62329,No,10.1016/j.jct.2019.03.029
Cn1nnc2c(C(N)=O)ncn2c1=O,273.15,ethanol,CCO,6.58e-05,0.0011527112042254858,-2.9382794855252294,Temozolomide,85622-93-1,5394,Yes,10.1016/j.jct.2019.07.017
Cn1nnc2c(C(N)=O)ncn2c1=O,278.15,ethanol,CCO,7.890000000000001e-05,0.001374736988683998,-2.8617803820439613,Temozolomide,85622-93-1,5394,Yes,10.1016/j.jct.2019.07.017
Cn1nnc2c(C(N)=O)ncn2c1=O,283.15,ethanol,CCO,9.48e-05,0.0016414432425861378,-2.784774129600985,Temozolomide,85622-93-1,5394,Yes,10.1016/j.jct.2019.07.017
Cn1nnc2c(C(N)=O)ncn2c1=O,288.15,ethanol,CCO,0.0001145,0.00197189545143812,-2.7051161147838347,Temozolomide,85622-93-1,5394,Yes,10.1016/j.jct.2019.07.017
Cn1nnc2c(C(N)=O)ncn2c1=O,293.15,ethanol,CCO,0.00013560000000000002,0.002324285304846221,-2.633710563581473,Temozolomide,85622-93-1,5394,Yes,10.1016/j.jct.2019.07.017
Cn1nnc2c(C(N)=O)ncn2c1=O,298.15,ethanol,CCO,0.0001597,0.002723158867719693,-2.5649270213991473,Temozolomide,85622-93-1,5394,Yes,10.1016/j.jct.2019.07.017
Cn1nnc2c(C(N)=O)ncn2c1=O,303.15,ethanol,CCO,0.0001884,0.003194106295446028,-2.4956506352365078,Temozolomide,85622-93-1,5394,Yes,10.1016/j.jct.2019.07.017
Cn1nnc2c(C(N)=O)ncn2c1=O,308.15,ethanol,CCO,0.0002246,0.003786029964201501,-2.4218159531731014,Temozolomide,85622-93-1,5394,Yes,10.1016/j.jct.2019.07.017
Cn1nnc2c(C(N)=O)ncn2c1=O,313.15,ethanol,CCO,0.00026859999999999997,0.004503238410633871,-2.3464750599920197,Temozolomide,85622-93-1,5394,Yes,10.1016/j.jct.2019.07.017
Cn1nnc2c(C(N)=O)ncn2c1=O,318.15,ethanol,CCO,0.0003125,0.005208830542326825,-2.2832597711389058,Temozolomide,85622-93-1,5394,Yes,10.1016/j.jct.2019.07.017
COC(=O)Nc1nc2ccc(Sc3ccccc3)cc2[nH]1,273.15,ethanol,CCO,4.243e-05,0.0007432886524456168,-3.1288424973838795,Fenbendazole,43210-67-9,3334,No,10.1016/j.jct.2019.07.018
COC(=O)Nc1nc2ccc(Sc3ccccc3)cc2[nH]1,278.15,ethanol,CCO,4.623e-05,0.0008054754699457076,-3.093947681103778,Fenbendazole,43210-67-9,3334,No,10.1016/j.jct.2019.07.018
COC(=O)Nc1nc2ccc(Sc3ccccc3)cc2[nH]1,283.15,ethanol,CCO,5.023e-05,0.000869683745861215,-3.060638646688302,Fenbendazole,43210-67-9,3334,No,10.1016/j.jct.2019.07.018