SMILES_Solute,Temperature_K,Solvent,SMILES_Solvent,Solubility(mole_fraction),Solubility(mol/L),LogS(mol/L),Compound_Name,CAS,PubChem_CID,FDA_Approved,Source
CC(=O)N1CCC[C@H]1C(=O)O,283.15,ethanol,CCO,0.07536,1.4110570491006191,0.1495445726549432,N-acetyl-L-proline,68-95-1,66141,No,10.1021/acs.jced.1c00032
CC(=O)N1CCC[C@H]1C(=O)O,293.15,ethanol,CCO,0.11064,2.1320894785647693,0.328805427010954,N-acetyl-L-proline,68-95-1,66141,No,10.1021/acs.jced.1c00032
CC(=O)N1CCC[C@H]1C(=O)O,303.15,ethanol,CCO,0.1564,3.1425834221640514,0.4972868151741095,N-acetyl-L-proline,68-95-1,66141,No,10.1021/acs.jced.1c00032
CC(=O)N1CCC[C@H]1C(=O)O,313.15,ethanol,CCO,0.21854,4.687339931599324,0.6709264502269549,N-acetyl-L-proline,68-95-1,66141,No,10.1021/acs.jced.1c00032
CC(=O)N1CCC[C@H]1C(=O)O,323.15,ethanol,CCO,0.27762,6.3667033200351435,0.803914612786157,N-acetyl-L-proline,68-95-1,66141,No,10.1021/acs.jced.1c00032
O=C(O)c1ccc(CO)cc1,283.15,ethanol,CCO,0.02885,0.5143229017293482,-0.28876413701812975,4-(hydroxymethyl) benzoic acid,3006-96-0,76360,No,10.1021/acs.jced.1c00035
O=C(O)c1ccc(CO)cc1,288.15,ethanol,CCO,0.03251,0.5786276111718096,-0.23760084636476136,4-(hydroxymethyl) benzoic acid,3006-96-0,76360,No,10.1021/acs.jced.1c00035
O=C(O)c1ccc(CO)cc1,293.15,ethanol,CCO,0.03667,0.6523890713434983,-0.18549332276199954,4-(hydroxymethyl) benzoic acid,3006-96-0,76360,No,10.1021/acs.jced.1c00035
O=C(O)c1ccc(CO)cc1,298.15,ethanol,CCO,0.0414,0.7363115560333607,-0.13293838343999276,4-(hydroxymethyl) benzoic acid,3006-96-0,76360,No,10.1021/acs.jced.1c00035
O=C(O)c1ccc(CO)cc1,303.15,ethanol,CCO,0.04679,0.8320531955768595,-0.07984890711436067,4-(hydroxymethyl) benzoic acid,3006-96-0,76360,No,10.1021/acs.jced.1c00035
O=C(O)c1ccc(CO)cc1,308.15,ethanol,CCO,0.05292,0.9416942344406598,-0.026090088556903167,4-(hydroxymethyl) benzoic acid,3006-96-0,76360,No,10.1021/acs.jced.1c00035
O=C(O)c1ccc(CO)cc1,313.15,ethanol,CCO,0.05989,1.0677704683427909,0.028477905271539553,4-(hydroxymethyl) benzoic acid,3006-96-0,76360,No,10.1021/acs.jced.1c00035
O=C(O)c1ccc(CO)cc1,318.15,ethanol,CCO,0.06782,1.2123066110950207,0.08361247351524138,4-(hydroxymethyl) benzoic acid,3006-96-0,76360,No,10.1021/acs.jced.1c00035
O=C(O)c1ccc(CO)cc1,323.15,ethanol,CCO,0.07683,1.3787284161915083,0.13947872667958103,4-(hydroxymethyl) benzoic acid,3006-96-0,76360,No,10.1021/acs.jced.1c00035
CC(=O)Nc1ccccc1[N+](=O)[O-],278.15,ethanol,CCO,0.01428,0.25239630148225445,-0.597917013364578,o-nitroacetanilide,552-32-9,11090,No,10.1021/acs.jced.1c00037
CC(=O)Nc1ccccc1[N+](=O)[O-],283.15,ethanol,CCO,0.01625,0.2859861359830317,-0.5436550200597976,o-nitroacetanilide,552-32-9,11090,No,10.1021/acs.jced.1c00037
CC(=O)Nc1ccccc1[N+](=O)[O-],288.15,ethanol,CCO,0.0188,0.32993544830488186,-0.4815710212956598,o-nitroacetanilide,552-32-9,11090,No,10.1021/acs.jced.1c00037
CC(=O)Nc1ccccc1[N+](=O)[O-],293.15,ethanol,CCO,0.02259,0.3961049826225856,-0.40218969455131376,o-nitroacetanilide,552-32-9,11090,No,10.1021/acs.jced.1c00037
CC(=O)Nc1ccccc1[N+](=O)[O-],298.15,ethanol,CCO,0.02756,0.48318684142280705,-0.315884901322516,o-nitroacetanilide,552-32-9,11090,No,10.1021/acs.jced.1c00037
CC(=O)Nc1ccccc1[N+](=O)[O-],303.15,ethanol,CCO,0.03235,0.5666861801479336,-0.2466573784272828,o-nitroacetanilide,552-32-9,11090,No,10.1021/acs.jced.1c00037
CC(=O)Nc1ccccc1[N+](=O)[O-],308.15,ethanol,CCO,0.03817,0.66880664976284,-0.17469941747551393,o-nitroacetanilide,552-32-9,11090,No,10.1021/acs.jced.1c00037
CC(=O)Nc1ccccc1[N+](=O)[O-],313.15,ethanol,CCO,0.04474,0.7850126433915001,-0.10512334846373826,o-nitroacetanilide,552-32-9,11090,No,10.1021/acs.jced.1c00037
CC(=O)Nc1ccccc1[N+](=O)[O-],318.15,ethanol,CCO,0.05158,0.9062230472943665,-0.04276489692897445,o-nitroacetanilide,552-32-9,11090,No,10.1021/acs.jced.1c00037
CC(=O)Nc1ccccc1[N+](=O)[O-],323.15,ethanol,CCO,0.06149,1.0854133652296976,0.03559516495837388,o-nitroacetanilide,552-32-9,11090,No,10.1021/acs.jced.1c00037
COc1cc2c(cc1OC)C(=O)CC2,283.15,ethanol,CCO,0.008258,0.14416257555787834,-0.8411474673432134,"5,6-dimethoxy-1-indanone",2107-69-9,75018,No,10.1021/acs.jced.1c00040
COc1cc2c(cc1OC)C(=O)CC2,288.15,ethanol,CCO,0.011225,0.19548684674656638,-0.7088824586136835,"5,6-dimethoxy-1-indanone",2107-69-9,75018,No,10.1021/acs.jced.1c00040
COc1cc2c(cc1OC)C(=O)CC2,293.15,ethanol,CCO,0.014072,0.24461409519740404,-0.6115185215839345,"5,6-dimethoxy-1-indanone",2107-69-9,75018,No,10.1021/acs.jced.1c00040
COc1cc2c(cc1OC)C(=O)CC2,298.15,ethanol,CCO,0.019318,0.3358401828892657,-0.47386734225685917,"5,6-dimethoxy-1-indanone",2107-69-9,75018,No,10.1021/acs.jced.1c00040
COc1cc2c(cc1OC)C(=O)CC2,303.15,ethanol,CCO,0.024209,0.4205393893810044,-0.3761933202236069,"5,6-dimethoxy-1-indanone",2107-69-9,75018,No,10.1021/acs.jced.1c00040
COc1cc2c(cc1OC)C(=O)CC2,308.15,ethanol,CCO,0.031701,0.5517473045837754,-0.2582597797925006,"5,6-dimethoxy-1-indanone",2107-69-9,75018,No,10.1021/acs.jced.1c00040
COc1cc2c(cc1OC)C(=O)CC2,313.15,ethanol,CCO,0.041188,0.7200116239292327,-0.14266049222487848,"5,6-dimethoxy-1-indanone",2107-69-9,75018,No,10.1021/acs.jced.1c00040
COc1cc2c(cc1OC)C(=O)CC2,318.15,ethanol,CCO,0.051926,0.9126349603891888,-0.03970289868707491,"5,6-dimethoxy-1-indanone",2107-69-9,75018,No,10.1021/acs.jced.1c00040
COc1cc2c(cc1OC)C(=O)CC2,323.15,ethanol,CCO,0.063588,1.1249617895655217,0.05113777145834353,"5,6-dimethoxy-1-indanone",2107-69-9,75018,No,10.1021/acs.jced.1c00040
Cc1cc(Cl)cc(C(=O)O)c1N,278.15,ethanol,CCO,0.007083,0.12428326185282637,-0.9055873570738583,2-amino-5-chloro-3-methylbenzoic acid,20776-67-4,11644044,No,10.1021/acs.jced.1c00047
Cc1cc(Cl)cc(C(=O)O)c1N,283.15,ethanol,CCO,0.007356,0.1282993803046874,-0.8917754412938531,2-amino-5-chloro-3-methylbenzoic acid,20776-67-4,11644044,No,10.1021/acs.jced.1c00047
Cc1cc(Cl)cc(C(=O)O)c1N,288.15,ethanol,CCO,0.007584,0.13159313572823916,-0.8807667641650602,2-amino-5-chloro-3-methylbenzoic acid,20776-67-4,11644044,No,10.1021/acs.jced.1c00047
Cc1cc(Cl)cc(C(=O)O)c1N,293.15,ethanol,CCO,0.008069,0.13941487218152673,-0.8556908950912774,2-amino-5-chloro-3-methylbenzoic acid,20776-67-4,11644044,No,10.1021/acs.jced.1c00047
Cc1cc(Cl)cc(C(=O)O)c1N,298.15,ethanol,CCO,0.008666,0.14903812673671782,-0.82670261673379,2-amino-5-chloro-3-methylbenzoic acid,20776-67-4,11644044,No,10.1021/acs.jced.1c00047
Cc1cc(Cl)cc(C(=O)O)c1N,303.15,ethanol,CCO,0.00934,0.1598118157731132,-0.7963911140373167,2-amino-5-chloro-3-methylbenzoic acid,20776-67-4,11644044,No,10.1021/acs.jced.1c00047
Cc1cc(Cl)cc(C(=O)O)c1N,308.15,ethanol,CCO,0.010284,0.17511696354466466,-0.756671781860577,2-amino-5-chloro-3-methylbenzoic acid,20776-67-4,11644044,No,10.1021/acs.jced.1c00047
Cc1cc(Cl)cc(C(=O)O)c1N,313.15,ethanol,CCO,0.011436,0.19389723688497756,-0.7124283797513996,2-amino-5-chloro-3-methylbenzoic acid,20776-67-4,11644044,No,10.1021/acs.jced.1c00047
Cc1cc(Cl)cc(C(=O)O)c1N,318.15,ethanol,CCO,0.012882,0.21745464675243187,-0.6626313075324324,2-amino-5-chloro-3-methylbenzoic acid,20776-67-4,11644044,No,10.1021/acs.jced.1c00047
Cc1cc(Cl)cc(C(=O)O)c1N,323.15,ethanol,CCO,0.014386,0.24180360346199647,-0.6165372313826089,2-amino-5-chloro-3-methylbenzoic acid,20776-67-4,11644044,No,10.1021/acs.jced.1c00047
O=C(O)CNCc1ccccc1,283.15,ethanol,CCO,0.000222,0.003844375125288537,-2.41517424147848,N-benzylglycine,17136-36-6,86965,No,10.1021/acs.jced.1c00050
O=C(O)CNCc1ccccc1,293.15,ethanol,CCO,0.000326,0.00558894782998222,-2.2526699442857927,N-benzylglycine,17136-36-6,86965,No,10.1021/acs.jced.1c00050
O=C(O)CNCc1ccccc1,303.15,ethanol,CCO,0.00043,0.007291919740470276,-2.1371581201134275,N-benzylglycine,17136-36-6,86965,No,10.1021/acs.jced.1c00050
O=C(O)CNCc1ccccc1,313.15,ethanol,CCO,0.000526,0.008820973302765534,-2.0544834923399313,N-benzylglycine,17136-36-6,86965,No,10.1021/acs.jced.1c00050
O=C(O)CNCc1ccccc1,323.15,ethanol,CCO,0.000709,0.011753949908556756,-1.9298161644369805,N-benzylglycine,17136-36-6,86965,No,10.1021/acs.jced.1c00050
Nc1cccc(S(=O)(=O)c2cccc(N)c2)c1,283.15,ethanol,CCO,0.002373,0.04118185486785116,-1.3852940962626548,"3,3-diaminodiphenyl sulfone",599-61-1,11741,No,10.1021/acs.jced.1c00062
Nc1cccc(S(=O)(=O)c2cccc(N)c2)c1,288.15,ethanol,CCO,0.002558,0.04416127033167474,-1.3549584422964878,"3,3-diaminodiphenyl sulfone",599-61-1,11741,No,10.1021/acs.jced.1c00062
Nc1cccc(S(=O)(=O)c2cccc(N)c2)c1,293.15,ethanol,CCO,0.002967,0.05100102047708152,-1.2924211340367395,"3,3-diaminodiphenyl sulfone",599-61-1,11741,No,10.1021/acs.jced.1c00062
Nc1cccc(S(=O)(=O)c2cccc(N)c2)c1,298.15,ethanol,CCO,0.003487,0.059657861123538554,-1.2243323211867647,"3,3-diaminodiphenyl sulfone",599-61-1,11741,No,10.1021/acs.jced.1c00062
Nc1cccc(S(=O)(=O)c2cccc(N)c2)c1,303.15,ethanol,CCO,0.004151,0.07065548458252478,-1.1508541207018192,"3,3-diaminodiphenyl sulfone",599-61-1,11741,No,10.1021/acs.jced.1c00062
Nc1cccc(S(=O)(=O)c2cccc(N)c2)c1,308.15,ethanol,CCO,0.004919,0.08330961549275896,-1.0793048699684236,"3,3-diaminodiphenyl sulfone",599-61-1,11741,No,10.1021/acs.jced.1c00062
Nc1cccc(S(=O)(=O)c2cccc(N)c2)c1,313.15,ethanol,CCO,0.005741,0.0967810390629607,-1.0142097195193172,"3,3-diaminodiphenyl sulfone",599-61-1,11741,No,10.1021/acs.jced.1c00062
Nc1cccc(S(=O)(=O)c2cccc(N)c2)c1,318.15,ethanol,CCO,0.006608,0.1108418702421626,-0.9552961549486425,"3,3-diaminodiphenyl sulfone",599-61-1,11741,No,10.1021/acs.jced.1c00062
Nc1cccc(S(=O)(=O)c2cccc(N)c2)c1,323.15,ethanol,CCO,0.007376,0.12310217123013599,-0.9097342870772034,"3,3-diaminodiphenyl sulfone",599-61-1,11741,No,10.1021/acs.jced.1c00062
Nc1cccc(S(=O)(=O)c2cccc(N)c2)c1,328.15,ethanol,CCO,0.008372,0.13902230713677693,-0.8569155084572465,"3,3-diaminodiphenyl sulfone",599-61-1,11741,No,10.1021/acs.jced.1c00062
CSCCC(NC(C)=O)C(=O)O,283.15,ethanol,CCO,0.04528,0.8211202407120805,-0.08559324232737764,N-acetyl-DL-methionine,1115-47-5,6180,No,10.1021/acs.jced.1c00064
CSCCC(NC(C)=O)C(=O)O,293.15,ethanol,CCO,0.06261,1.144706740571611,0.05869424015690491,N-acetyl-DL-methionine,1115-47-5,6180,No,10.1021/acs.jced.1c00064
CSCCC(NC(C)=O)C(=O)O,303.15,ethanol,CCO,0.0954,1.7876332700288216,0.2522784288119244,N-acetyl-DL-methionine,1115-47-5,6180,No,10.1021/acs.jced.1c00064
CSCCC(NC(C)=O)C(=O)O,313.15,ethanol,CCO,0.13455,2.6058174278820947,0.4159439843462697,N-acetyl-DL-methionine,1115-47-5,6180,No,10.1021/acs.jced.1c00064
CSCCC(NC(C)=O)C(=O)O,323.15,ethanol,CCO,0.18418,3.7400524874997925,0.5728776970859284,N-acetyl-DL-methionine,1115-47-5,6180,No,10.1021/acs.jced.1c00064
CCCc1cc(=O)[nH]c(=S)[nH]1,278.15,ethanol,CCO,0.003122,0.0545631248525058,-1.2631007654164919,Propylthiouracil,51-52-5,657298,Yes,10.1021/acs.jced.1c00071
CCCc1cc(=O)[nH]c(=S)[nH]1,283.15,ethanol,CCO,0.003649,0.06340709586427327,-1.1978621376662777,Propylthiouracil,51-52-5,657298,Yes,10.1021/acs.jced.1c00071
CCCc1cc(=O)[nH]c(=S)[nH]1,288.15,ethanol,CCO,0.004188,0.07241991096690756,-1.1401420134406381,Propylthiouracil,51-52-5,657298,Yes,10.1021/acs.jced.1c00071
CCCc1cc(=O)[nH]c(=S)[nH]1,293.15,ethanol,CCO,0.004808,0.08279963748221145,-1.081971564662219,Propylthiouracil,51-52-5,657298,Yes,10.1021/acs.jced.1c00071
CCCc1cc(=O)[nH]c(=S)[nH]1,298.15,ethanol,CCO,0.005256,0.09008297665712081,-1.045357271644556,Propylthiouracil,51-52-5,657298,Yes,10.1021/acs.jced.1c00071
CCCc1cc(=O)[nH]c(=S)[nH]1,303.15,ethanol,CCO,0.005924,0.10101412322307263,-0.9956179013753587,Propylthiouracil,51-52-5,657298,Yes,10.1021/acs.jced.1c00071
CCCc1cc(=O)[nH]c(=S)[nH]1,308.15,ethanol,CCO,0.007028,0.11928106055499274,-0.9234285081270481,Propylthiouracil,51-52-5,657298,Yes,10.1021/acs.jced.1c00071
CCCc1cc(=O)[nH]c(=S)[nH]1,313.15,ethanol,CCO,0.008056,0.13612395764620375,-0.8660654327842686,Propylthiouracil,51-52-5,657298,Yes,10.1021/acs.jced.1c00071
CCCc1cc(=O)[nH]c(=S)[nH]1,318.15,ethanol,CCO,0.009324,0.15682853727083362,-0.8045749081593244,Propylthiouracil,51-52-5,657298,Yes,10.1021/acs.jced.1c00071
CCCc1cc(=O)[nH]c(=S)[nH]1,323.15,ethanol,CCO,0.01104,0.1849353457275662,-0.7329800764697005,Propylthiouracil,51-52-5,657298,Yes,10.1021/acs.jced.1c00071
CCOC(=O)[C@@H]1CSCN1.Cl,283.15,ethanol,CCO,0.009366,0.16368816642431766,-0.7859827160821499,Ethyl L-thiazolidine-4-carboxylate hydrochloride,86028-91-3,45357993,No,10.1021/acs.jced.1c00079
CCOC(=O)[C@@H]1CSCN1.Cl,293.15,ethanol,CCO,0.012509,0.21710023768568715,-0.6633397010710251,Ethyl L-thiazolidine-4-carboxylate hydrochloride,86028-91-3,45357993,No,10.1021/acs.jced.1c00079
CCOC(=O)[C@@H]1CSCN1.Cl,303.15,ethanol,CCO,0.019261,0.3328986415838391,-0.47768797700868704,Ethyl L-thiazolidine-4-carboxylate hydrochloride,86028-91-3,45357993,No,10.1021/acs.jced.1c00079
CCOC(=O)[C@@H]1CSCN1.Cl,313.15,ethanol,CCO,0.030552,0.5282231014740577,-0.27718260914326714,Ethyl L-thiazolidine-4-carboxylate hydrochloride,86028-91-3,45357993,No,10.1021/acs.jced.1c00079
CCOC(=O)[C@@H]1CSCN1.Cl,323.15,ethanol,CCO,0.047282,0.8221688994116292,-0.08503895551647496,Ethyl L-thiazolidine-4-carboxylate hydrochloride,86028-91-3,45357993,No,10.1021/acs.jced.1c00079
OCC(CO)(CO)CO,283.15,ethanol,CCO,0.0005782,0.010016260915182778,-1.9992943709798672,Pentaerythritol,115-77-5,8285,No,10.1021/acs.jced.1c00080
OCC(CO)(CO)CO,288.15,ethanol,CCO,0.0006971,0.012012312005799376,-1.9203733960337277,Pentaerythritol,115-77-5,8285,No,10.1021/acs.jced.1c00080
OCC(CO)(CO)CO,293.15,ethanol,CCO,0.000819,0.014047873482058246,-1.8523894127628155,Pentaerythritol,115-77-5,8285,No,10.1021/acs.jced.1c00080
OCC(CO)(CO)CO,298.15,ethanol,CCO,0.001029,0.017561483256231372,-1.7554388060385595,Pentaerythritol,115-77-5,8285,No,10.1021/acs.jced.1c00080
OCC(CO)(CO)CO,303.15,ethanol,CCO,0.001329,0.02255740721677461,-1.646710820298579,Pentaerythritol,115-77-5,8285,No,10.1021/acs.jced.1c00080
OCC(CO)(CO)CO,308.15,ethanol,CCO,0.001573,0.026551505255986426,-1.5759108528937,Pentaerythritol,115-77-5,8285,No,10.1021/acs.jced.1c00080
OCC(CO)(CO)CO,313.15,ethanol,CCO,0.002058,0.03456545944733623,-1.4613576660601035,Pentaerythritol,115-77-5,8285,No,10.1021/acs.jced.1c00080
OCC(CO)(CO)CO,318.15,ethanol,CCO,0.002601,0.04345361304919498,-1.3619741073144611,Pentaerythritol,115-77-5,8285,No,10.1021/acs.jced.1c00080
OCC(CO)(CO)CO,323.15,ethanol,CCO,0.003145,0.052265876104375254,-1.28178176536558,Pentaerythritol,115-77-5,8285,No,10.1021/acs.jced.1c00080
CCOC(=O)[C@@H](C)Oc1ccc(Oc2cnc3cc(Cl)ccc3n2)cc1,278.15,ethanol,CCO,0.0009636,0.016804431580906786,-1.7745761731945426,Quizalofop-p-ethyl,100646-51-3,1617113,No,10.1021/acs.jced.1c00092
CCOC(=O)[C@@H](C)Oc1ccc(Oc2cnc3cc(Cl)ccc3n2)cc1,283.15,ethanol,CCO,0.001286,0.02229339395678063,-1.65182380929022,Quizalofop-p-ethyl,100646-51-3,1617113,No,10.1021/acs.jced.1c00092
CCOC(=O)[C@@H](C)Oc1ccc(Oc2cnc3cc(Cl)ccc3n2)cc1,288.15,ethanol,CCO,0.001706,0.029427219920254998,-1.5312507650945053,Quizalofop-p-ethyl,100646-51-3,1617113,No,10.1021/acs.jced.1c00092
CCOC(=O)[C@@H](C)Oc1ccc(Oc2cnc3cc(Cl)ccc3n2)cc1,293.15,ethanol,CCO,0.002323,0.03990525607561502,-1.3989698979398468,Quizalofop-p-ethyl,100646-51-3,1617113,No,10.1021/acs.jced.1c00092
CCOC(=O)[C@@H](C)Oc1ccc(Oc2cnc3cc(Cl)ccc3n2)cc1,298.15,ethanol,CCO,0.003152,0.05390834102322411,-1.2683440329561044,Quizalofop-p-ethyl,100646-51-3,1617113,No,10.1021/acs.jced.1c00092
CCOC(=O)[C@@H](C)Oc1ccc(Oc2cnc3cc(Cl)ccc3n2)cc1,303.15,ethanol,CCO,0.004313,0.07342488225955016,-1.1341567412174014,Quizalofop-p-ethyl,100646-51-3,1617113,No,10.1021/acs.jced.1c00092
CCOC(=O)[C@@H](C)Oc1ccc(Oc2cnc3cc(Cl)ccc3n2)cc1,308.15,ethanol,CCO,0.005914,0.10026147836769833,-0.9988658959507721,Quizalofop-p-ethyl,100646-51-3,1617113,No,10.1021/acs.jced.1c00092
CCOC(=O)[C@@H](C)Oc1ccc(Oc2cnc3cc(Cl)ccc3n2)cc1,313.15,ethanol,CCO,0.008342,0.1409972136104683,-0.8507894697953656,Quizalofop-p-ethyl,100646-51-3,1617113,No,10.1021/acs.jced.1c00092
CCOC(=O)[C@@H](C)Oc1ccc(Oc2cnc3cc(Cl)ccc3n2)cc1,318.15,ethanol,CCO,0.01243,0.2097286246928832,-0.6783422910522028,Quizalofop-p-ethyl,100646-51-3,1617113,No,10.1021/acs.jced.1c00092
Cc1c(N)cccc1C(=O)O,288.15,ethanol,CCO,0.003728,0.06443571440054717,-1.1908733520840884,3-amino-2-methylbenzoic acid,52130-17-3,2733699,No,10.1021/acs.jced.1c00109
Cc1c(N)cccc1C(=O)O,293.15,ethanol,CCO,0.004218,0.07259607762828989,-1.139086843630595,3-amino-2-methylbenzoic acid,52130-17-3,2733699,No,10.1021/acs.jced.1c00109
Cc1c(N)cccc1C(=O)O,298.15,ethanol,CCO,0.004965,0.08507061956457829,-1.0702204042410872,3-amino-2-methylbenzoic acid,52130-17-3,2733699,No,10.1021/acs.jced.1c00109
Cc1c(N)cccc1C(=O)O,303.15,ethanol,CCO,0.006278,0.10708855146483158,-0.9702569558853545,3-amino-2-methylbenzoic acid,52130-17-3,2733699,No,10.1021/acs.jced.1c00109
Cc1c(N)cccc1C(=O)O,308.15,ethanol,CCO,0.007491,0.12719852782034258,-0.8955179151278684,3-amino-2-methylbenzoic acid,52130-17-3,2733699,No,10.1021/acs.jced.1c00109
Cc1c(N)cccc1C(=O)O,313.15,ethanol,CCO,0.008912,0.15071803542801468,-0.8218347754345122,3-amino-2-methylbenzoic acid,52130-17-3,2733699,No,10.1021/acs.jced.1c00109
Cc1c(N)cccc1C(=O)O,318.15,ethanol,CCO,0.01053,0.17732918124716662,-0.7512197911232308,3-amino-2-methylbenzoic acid,52130-17-3,2733699,No,10.1021/acs.jced.1c00109
Cc1c(N)cccc1C(=O)O,323.15,ethanol,CCO,0.01237,0.2074937418023797,-0.6829949974660086,3-amino-2-methylbenzoic acid,52130-17-3,2733699,No,10.1021/acs.jced.1c00109
Cc1c(N)cccc1C(=O)O,328.15,ethanol,CCO,0.01511,0.25262759608280433,-0.5975192105032864,3-amino-2-methylbenzoic acid,52130-17-3,2733699,No,10.1021/acs.jced.1c00109
O=C(O)COc1ccc(Cl)cc1,283.15,ethanol,CCO,0.03084,0.5509285110766056,-0.25890475189089723,4-chlorophenoxyacetic acid,122-88-3,26229,No,10.1021/acs.jced.1c00153
O=C(O)COc1ccc(Cl)cc1,288.15,ethanol,CCO,0.03472,0.6193770047297907,-0.2080449224928665,4-chlorophenoxyacetic acid,122-88-3,26229,No,10.1021/acs.jced.1c00153
O=C(O)COc1ccc(Cl)cc1,293.15,ethanol,CCO,0.04064,0.7260105722728086,-0.13905705499369292,4-chlorophenoxyacetic acid,122-88-3,26229,No,10.1021/acs.jced.1c00153
O=C(O)COc1ccc(Cl)cc1,298.15,ethanol,CCO,0.04724,0.8453276473777149,-0.07297492670963732,4-chlorophenoxyacetic acid,122-88-3,26229,No,10.1021/acs.jced.1c00153
O=C(O)COc1ccc(Cl)cc1,303.15,ethanol,CCO,0.05447,0.9764920232753986,-0.010331300007081538,4-chlorophenoxyacetic acid,122-88-3,26229,No,10.1021/acs.jced.1c00153
O=C(O)COc1ccc(Cl)cc1,308.15,ethanol,CCO,0.06426,1.1573434763944674,0.06346226799692624,4-chlorophenoxyacetic acid,122-88-3,26229,No,10.1021/acs.jced.1c00153
O=C(O)COc1ccc(Cl)cc1,313.15,ethanol,CCO,0.07957,1.4489748824873818,0.1610608571815435,4-chlorophenoxyacetic acid,122-88-3,26229,No,10.1021/acs.jced.1c00153
O=C(O)COc1ccc(Cl)cc1,318.15,ethanol,CCO,0.09623,1.7742182149428116,0.2490070336001817,4-chlorophenoxyacetic acid,122-88-3,26229,No,10.1021/acs.jced.1c00153
O=C(O)COc1ccc(Cl)cc1,323.15,ethanol,CCO,0.1135,2.121029446781053,0.3265466979770745,4-chlorophenoxyacetic acid,122-88-3,26229,No,10.1021/acs.jced.1c00153
c1ccc(-n2c(-c3cc(-c4nc5ccccc5n4-c4ccccc4)cc(-c4nc5ccccc5n4-c4ccccc4)c3)nc3ccccc32)cc1,283.15,ethanol,CCO,0.000357,0.006183005700701042,-2.20880035308355,"1,3,5-tris(1-phenyl-1H-benzimidazol-2-yl)benzene",192198-85-9,21932919,No,10.1021/acs.jced.1c00163
c1ccc(-n2c(-c3cc(-c4nc5ccccc5n4-c4ccccc4)cc(-c4nc5ccccc5n4-c4ccccc4)c3)nc3ccccc32)cc1,293.15,ethanol,CCO,0.000437,0.007492765102203881,-2.125357882297899,"1,3,5-tris(1-phenyl-1H-benzimidazol-2-yl)benzene",192198-85-9,21932919,No,10.1021/acs.jced.1c00163
c1ccc(-n2c(-c3cc(-c4nc5ccccc5n4-c4ccccc4)cc(-c4nc5ccccc5n4-c4ccccc4)c3)nc3ccccc32)cc1,303.15,ethanol,CCO,0.000542,0.009192240437387242,-2.0365786245215913,"1,3,5-tris(1-phenyl-1H-benzimidazol-2-yl)benzene",192198-85-9,21932919,No,10.1021/acs.jced.1c00163
c1ccc(-n2c(-c3cc(-c4nc5ccccc5n4-c4ccccc4)cc(-c4nc5ccccc5n4-c4ccccc4)c3)nc3ccccc32)cc1,313.15,ethanol,CCO,0.000716,0.012009539448303404,-1.9204736469597572,"1,3,5-tris(1-phenyl-1H-benzimidazol-2-yl)benzene",192198-85-9,21932919,No,10.1021/acs.jced.1c00163
c1ccc(-n2c(-c3cc(-c4nc5ccccc5n4-c4ccccc4)cc(-c4nc5ccccc5n4-c4ccccc4)c3)nc3ccccc32)cc1,323.15,ethanol,CCO,0.000932,0.015454339192678662,-1.8109495600674328,"1,3,5-tris(1-phenyl-1H-benzimidazol-2-yl)benzene",192198-85-9,21932919,No,10.1021/acs.jced.1c00163