SMILES_Solute,Temperature_K,Solvent,SMILES_Solvent,Solubility(mole_fraction),Solubility(mol/L),LogS(mol/L),Compound_Name,CAS,PubChem_CID,FDA_Approved,Source
COc1cc(Cl)c(OC)cc1N,279.35,ethanol,CCO,0.002736,0.04773605685794873,-1.3211534578797561,"4-chloro-2,5-dimethoxyaniline",6358-64-1,22833,No,10.1016/j.jct.2014.09.003
COc1cc(Cl)c(OC)cc1N,282.65,ethanol,CCO,0.00327,0.05687817389693832,-1.2450543553024433,"4-chloro-2,5-dimethoxyaniline",6358-64-1,22833,No,10.1016/j.jct.2014.09.003
COc1cc(Cl)c(OC)cc1N,286.45,ethanol,CCO,0.003857,0.06684886569982505,-1.1749059575042586,"4-chloro-2,5-dimethoxyaniline",6358-64-1,22833,No,10.1016/j.jct.2014.09.003
COc1cc(Cl)c(OC)cc1N,289.55,ethanol,CCO,0.004468,0.07722223989625081,-1.1122576054512399,"4-chloro-2,5-dimethoxyaniline",6358-64-1,22833,No,10.1016/j.jct.2014.09.003
COc1cc(Cl)c(OC)cc1N,292.15,ethanol,CCO,0.004969,0.08567818689652794,-1.0671297325259277,"4-chloro-2,5-dimethoxyaniline",6358-64-1,22833,No,10.1016/j.jct.2014.09.003
COc1cc(Cl)c(OC)cc1N,295.55,ethanol,CCO,0.005787,0.09948930019291544,-1.0022236239481874,"4-chloro-2,5-dimethoxyaniline",6358-64-1,22833,No,10.1016/j.jct.2014.09.003
COc1cc(Cl)c(OC)cc1N,299.45,ethanol,CCO,0.006947,0.11905386884157726,-0.924256486951689,"4-chloro-2,5-dimethoxyaniline",6358-64-1,22833,No,10.1016/j.jct.2014.09.003
COc1cc(Cl)c(OC)cc1N,303.05,ethanol,CCO,0.008214,0.14038131139707388,-0.8526907048654457,"4-chloro-2,5-dimethoxyaniline",6358-64-1,22833,No,10.1016/j.jct.2014.09.003
COc1cc(Cl)c(OC)cc1N,305.85,ethanol,CCO,0.009379,0.15997740575230435,-0.7959413501565606,"4-chloro-2,5-dimethoxyaniline",6358-64-1,22833,No,10.1016/j.jct.2014.09.003
COc1cc(Cl)c(OC)cc1N,310.25,ethanol,CCO,0.01149,0.19543312920800984,-0.7090018141450369,"4-chloro-2,5-dimethoxyaniline",6358-64-1,22833,No,10.1016/j.jct.2014.09.003
COc1cc(Cl)c(OC)cc1N,313.95,ethanol,CCO,0.013710000000000002,0.23274237579028934,-0.6331245367974865,"4-chloro-2,5-dimethoxyaniline",6358-64-1,22833,No,10.1016/j.jct.2014.09.003
COc1cc(Cl)c(OC)cc1N,317.65,ethanol,CCO,0.01643,0.2785163605160845,-0.5551492885578844,"4-chloro-2,5-dimethoxyaniline",6358-64-1,22833,No,10.1016/j.jct.2014.09.003
COc1cc(Cl)c(OC)cc1N,321.55,ethanol,CCO,0.02011,0.34066068301928565,-0.46767798716322384,"4-chloro-2,5-dimethoxyaniline",6358-64-1,22833,No,10.1016/j.jct.2014.09.003
COc1cc(Cl)c(OC)cc1N,325.05,ethanol,CCO,0.02401,0.4067182230882065,-0.39070636851168894,"4-chloro-2,5-dimethoxyaniline",6358-64-1,22833,No,10.1016/j.jct.2014.09.003
COc1cc(Cl)c(OC)cc1N,328.65,ethanol,CCO,0.02892,0.49033473209688505,-0.3095073430911965,"4-chloro-2,5-dimethoxyaniline",6358-64-1,22833,No,10.1016/j.jct.2014.09.003
COc1cc(Cl)c(OC)cc1N,331.55,ethanol,CCO,0.03442,0.584949800918616,-0.23288140249812603,"4-chloro-2,5-dimethoxyaniline",6358-64-1,22833,No,10.1016/j.jct.2014.09.003
COc1cc(Cl)c(OC)cc1N,335.25,ethanol,CCO,0.04159,0.7090423390585546,-0.14932783100805025,"4-chloro-2,5-dimethoxyaniline",6358-64-1,22833,No,10.1016/j.jct.2014.09.003
COc1cc([N+](=O)[O-])c(OC)cc1Cl,276.95,ethanol,CCO,0.0004197,0.007324814721107402,-2.1352033561777213,"4-chloro-2,5-dimethoxynitrobenzene",6940-53-0,81362,No,10.1016/j.jct.2014.09.003
COc1cc([N+](=O)[O-])c(OC)cc1Cl,281.05,ethanol,CCO,0.0005218,0.00906704445508264,-2.0425342549494827,"4-chloro-2,5-dimethoxynitrobenzene",6940-53-0,81362,No,10.1016/j.jct.2014.09.003
COc1cc([N+](=O)[O-])c(OC)cc1Cl,285.25,ethanol,CCO,0.000644,0.011140480342225336,-1.9530960833561388,"4-chloro-2,5-dimethoxynitrobenzene",6940-53-0,81362,No,10.1016/j.jct.2014.09.003
COc1cc([N+](=O)[O-])c(OC)cc1Cl,288.25,ethanol,CCO,0.0007574999999999999,0.013062254507893736,-1.883981858601825,"4-chloro-2,5-dimethoxynitrobenzene",6940-53-0,81362,No,10.1016/j.jct.2014.09.003
COc1cc([N+](=O)[O-])c(OC)cc1Cl,291.45,ethanol,CCO,0.0008921000000000001,0.015331159299737484,-1.814425003759937,"4-chloro-2,5-dimethoxynitrobenzene",6940-53-0,81362,No,10.1016/j.jct.2014.09.003
COc1cc([N+](=O)[O-])c(OC)cc1Cl,295.75,ethanol,CCO,0.0010869999999999999,0.018595497814097545,-1.73059219079134,"4-chloro-2,5-dimethoxynitrobenzene",6940-53-0,81362,No,10.1016/j.jct.2014.09.003
COc1cc([N+](=O)[O-])c(OC)cc1Cl,300.15,ethanol,CCO,0.001351,0.02300499561749628,-1.6381778451332587,"4-chloro-2,5-dimethoxynitrobenzene",6940-53-0,81362,No,10.1016/j.jct.2014.09.003
COc1cc([N+](=O)[O-])c(OC)cc1Cl,305.55,ethanol,CCO,0.0017230000000000001,0.029173604365223687,-1.535009910980274,"4-chloro-2,5-dimethoxynitrobenzene",6940-53-0,81362,No,10.1016/j.jct.2014.09.003
COc1cc([N+](=O)[O-])c(OC)cc1Cl,310.45,ethanol,CCO,0.002189,0.03687726453407007,-1.4332413013336769,"4-chloro-2,5-dimethoxynitrobenzene",6940-53-0,81362,No,10.1016/j.jct.2014.09.003
COc1cc([N+](=O)[O-])c(OC)cc1Cl,314.85,ethanol,CCO,0.0027400000000000002,0.04595595310424859,-1.3376582224092608,"4-chloro-2,5-dimethoxynitrobenzene",6940-53-0,81362,No,10.1016/j.jct.2014.09.003
COc1cc([N+](=O)[O-])c(OC)cc1Cl,319.65,ethanol,CCO,0.003398,0.05671928915341274,-1.246269220679095,"4-chloro-2,5-dimethoxynitrobenzene",6940-53-0,81362,No,10.1016/j.jct.2014.09.003
COc1cc([N+](=O)[O-])c(OC)cc1Cl,323.65,ethanol,CCO,0.004086,0.06793919125623314,-1.1678796272488248,"4-chloro-2,5-dimethoxynitrobenzene",6940-53-0,81362,No,10.1016/j.jct.2014.09.003
COc1cc([N+](=O)[O-])c(OC)cc1Cl,327.25,ethanol,CCO,0.004802,0.07957230454417467,-1.0992380638777783,"4-chloro-2,5-dimethoxynitrobenzene",6940-53-0,81362,No,10.1016/j.jct.2014.09.003
COc1cc([N+](=O)[O-])c(OC)cc1Cl,330.25,ethanol,CCO,0.00558,0.09221731233786426,-1.0351875393909995,"4-chloro-2,5-dimethoxynitrobenzene",6940-53-0,81362,No,10.1016/j.jct.2014.09.003
COc1cc([N+](=O)[O-])c(OC)cc1Cl,333.35,ethanol,CCO,0.006495,0.10705341802116505,-0.9703994619143049,"4-chloro-2,5-dimethoxynitrobenzene",6940-53-0,81362,No,10.1016/j.jct.2014.09.003
COc1cc([N+](=O)[O-])c(OC)cc1Cl,336.65,ethanol,CCO,0.007636,0.12552293965595362,-0.901276898441118,"4-chloro-2,5-dimethoxynitrobenzene",6940-53-0,81362,No,10.1016/j.jct.2014.09.003
COc1cc([N+](=O)[O-])c(OC)cc1Cl,340.45,ethanol,CCO,0.009207,0.1509177099640361,-0.8212597934361104,"4-chloro-2,5-dimethoxynitrobenzene",6940-53-0,81362,No,10.1016/j.jct.2014.09.003
C/C=C/C=C/C(=O)O,285.15,ethanol,CCO,0.04417,0.7989740303538645,-0.0974673366526018,Sorbic acid,110-44-1,643460,No,10.1016/j.jct.2015.02.004
C/C=C/C=C/C(=O)O,289.15,ethanol,CCO,0.0488,0.8831284952972032,-0.05397610192806375,Sorbic acid,110-44-1,643460,No,10.1016/j.jct.2015.02.004
C/C=C/C=C/C(=O)O,293.15,ethanol,CCO,0.05716,1.0390227899550846,0.01662507348902406,Sorbic acid,110-44-1,643460,No,10.1016/j.jct.2015.02.004
C/C=C/C=C/C(=O)O,298.15,ethanol,CCO,0.06432,1.1719724137103686,0.06891738922954334,Sorbic acid,110-44-1,643460,No,10.1016/j.jct.2015.02.004
C/C=C/C=C/C(=O)O,303.15,ethanol,CCO,0.07469,1.3682386092027394,0.13616184126110817,Sorbic acid,110-44-1,643460,No,10.1016/j.jct.2015.02.004
C/C=C/C=C/C(=O)O,308.15,ethanol,CCO,0.0872,1.6099693008975657,0.2068175949275651,Sorbic acid,110-44-1,643460,No,10.1016/j.jct.2015.02.004
C/C=C/C=C/C(=O)O,312.65,ethanol,CCO,0.10144,1.8929708364704074,0.2771439231779866,Sorbic acid,110-44-1,643460,No,10.1016/j.jct.2015.02.004
C/C=C/C=C/C(=O)O,318.15,ethanol,CCO,0.12071,2.287523608037056,0.3593655848313014,Sorbic acid,110-44-1,643460,No,10.1016/j.jct.2015.02.004
C/C=C/C=C/C(=O)O,323.15,ethanol,CCO,0.14325,2.769938291076471,0.44247009392239256,Sorbic acid,110-44-1,643460,No,10.1016/j.jct.2015.02.004
O=C(O)C1=C[C@@H](O)[C@@H](O)[C@H](O)C1,297.45,ethanol,CCO,0.00446,0.07641204123824298,-1.1168381986066807,(-)-shikimic acid,138-59-0,8742,No,10.1016/j.jct.2015.04.009
O=C(O)C1=C[C@@H](O)[C@@H](O)[C@H](O)C1,302.65,ethanol,CCO,0.00526,0.08966915710077379,-1.047356912634313,(-)-shikimic acid,138-59-0,8742,No,10.1016/j.jct.2015.04.009
O=C(O)C1=C[C@@H](O)[C@@H](O)[C@H](O)C1,307.75,ethanol,CCO,0.00634,0.10758056233955521,-0.9682661899265709,(-)-shikimic acid,138-59-0,8742,No,10.1016/j.jct.2015.04.009
O=C(O)C1=C[C@@H](O)[C@@H](O)[C@H](O)C1,312.45,ethanol,CCO,0.00721,0.12180297019001106,-0.9143421212154244,(-)-shikimic acid,138-59-0,8742,No,10.1016/j.jct.2015.04.009
O=C(O)C1=C[C@@H](O)[C@@H](O)[C@H](O)C1,317.55,ethanol,CCO,0.00855,0.14380140306118702,-0.8422368765486951,(-)-shikimic acid,138-59-0,8742,No,10.1016/j.jct.2015.04.009
O=C(O)C1=C[C@@H](O)[C@@H](O)[C@H](O)C1,322.25,ethanol,CCO,0.01004,0.1682115472196226,-0.7741441944974957,(-)-shikimic acid,138-59-0,8742,No,10.1016/j.jct.2015.04.009
O=C(O)C1=C[C@@H](O)[C@@H](O)[C@H](O)C1,327.85,ethanol,CCO,0.01176,0.1961075664878191,-0.7075056494708578,(-)-shikimic acid,138-59-0,8742,No,10.1016/j.jct.2015.04.009
O=C(O)C1=C[C@@H](O)[C@@H](O)[C@H](O)C1,332.55,ethanol,CCO,0.01387,0.23053453099765,-0.6372640138815739,(-)-shikimic acid,138-59-0,8742,No,10.1016/j.jct.2015.04.009
O=C(O)C1=C[C@@H](O)[C@@H](O)[C@H](O)C1,337.35,ethanol,CCO,0.01595,0.2641910324268507,-0.5780819279540114,(-)-shikimic acid,138-59-0,8742,No,10.1016/j.jct.2015.04.009
O=C(O)C1=C[C@@H](O)[C@@H](O)[C@H](O)C1,342.55,ethanol,CCO,0.01902,0.3141151418294883,-0.5029111280571057,(-)-shikimic acid,138-59-0,8742,No,10.1016/j.jct.2015.04.009
O=C(O)C1=C[C@@H](O)[C@@H](O)[C@H](O)C1,348.15,ethanol,CCO,0.02276,0.3748458584394071,-0.42614728318214334,(-)-shikimic acid,138-59-0,8742,No,10.1016/j.jct.2015.04.009
O=c1c(-c2ccc(O)cc2)coc2cc(O[C@@H]3O[C@H](CO)[C@@H](O)[C@H](O)[C@H]3O)ccc12,283.2,ethanol,CCO,0.0002912,0.0050469832910536765,-2.296968133073962,Daidzin,552-66-9,107971,No,10.1016/j.jct.2015.04.025
O=c1c(-c2ccc(O)cc2)coc2cc(O[C@@H]3O[C@H](CO)[C@@H](O)[C@H](O)[C@H]3O)ccc12,293.2,ethanol,CCO,0.0003967,0.006800924628738462,-2.167432038196661,Daidzin,552-66-9,107971,No,10.1016/j.jct.2015.04.025
O=c1c(-c2ccc(O)cc2)coc2cc(O[C@@H]3O[C@H](CO)[C@@H](O)[C@H](O)[C@H]3O)ccc12,303.2,ethanol,CCO,0.000499,0.008460908087254275,-2.0725830227624993,Daidzin,552-66-9,107971,No,10.1016/j.jct.2015.04.025
O=c1c(-c2ccc(O)cc2)coc2cc(O[C@@H]3O[C@H](CO)[C@@H](O)[C@H](O)[C@H]3O)ccc12,313.2,ethanol,CCO,0.0006688,0.011214974679983992,-1.9502017025853067,Daidzin,552-66-9,107971,No,10.1016/j.jct.2015.04.025
O=c1c(-c2ccc(O)cc2)coc2cc(O[C@@H]3O[C@H](CO)[C@@H](O)[C@H](O)[C@H]3O)ccc12,323.2,ethanol,CCO,0.000813,0.013480668204367984,-1.8702885803320428,Daidzin,552-66-9,107971,No,10.1016/j.jct.2015.04.025
COc1cc(-c2cc(=O)c3c(O)cc(O)cc3o2)cc(OC)c1O,288.15,ethanol,CCO,5.94e-06,0.00010228635287603689,-3.990182306326914,Tricin,520-32-1,5281702,No,10.1016/j.jct.2015.04.037
COc1cc(-c2cc(=O)c3c(O)cc(O)cc3o2)cc(OC)c1O,293.16,ethanol,CCO,8.85e-06,0.00015167003403760682,-3.8191002157699128,Tricin,520-32-1,5281702,No,10.1016/j.jct.2015.04.037
COc1cc(-c2cc(=O)c3c(O)cc(O)cc3o2)cc(OC)c1O,298.15,ethanol,CCO,1.2559999999999998e-05,0.00021413802569984818,-3.6693062057309964,Tricin,520-32-1,5281702,No,10.1016/j.jct.2015.04.037
COc1cc(-c2cc(=O)c3c(O)cc(O)cc3o2)cc(OC)c1O,303.15,ethanol,CCO,1.7160000000000002e-05,0.0002908783336328772,-3.5362886264123317,Tricin,520-32-1,5281702,No,10.1016/j.jct.2015.04.037
COc1cc(-c2cc(=O)c3c(O)cc(O)cc3o2)cc(OC)c1O,308.16,ethanol,CCO,2.191e-05,0.00036926138525776754,-3.4326661054177836,Tricin,520-32-1,5281702,No,10.1016/j.jct.2015.04.037
COc1cc(-c2cc(=O)c3c(O)cc(O)cc3o2)cc(OC)c1O,313.18,ethanol,CCO,3.001e-05,0.0005029216595128235,-3.2984996600554735,Tricin,520-32-1,5281702,No,10.1016/j.jct.2015.04.037
COc1cc(-c2cc(=O)c3c(O)cc(O)cc3o2)cc(OC)c1O,318.15,ethanol,CCO,3.827e-05,0.000637719287107775,-3.1953704480624365,Tricin,520-32-1,5281702,No,10.1016/j.jct.2015.04.037
O=c1c(-c2ccc(O)cc2)coc2cc(O[C@@H]3O[C@H](CO)[C@@H](O)[C@H](O)[C@H]3O)cc(O)c12,283.2,ethanol,CCO,2.63e-05,0.0004557022594555438,-3.341318818100364,Genistin,529-59-9,5281377,No,10.1016/j.jct.2015.05.019
O=c1c(-c2ccc(O)cc2)coc2cc(O[C@@H]3O[C@H](CO)[C@@H](O)[C@H](O)[C@H]3O)cc(O)c12,293.2,ethanol,CCO,2.85e-05,0.0004884168969555231,-3.311209319895852,Genistin,529-59-9,5281377,No,10.1016/j.jct.2015.05.019
O=c1c(-c2ccc(O)cc2)coc2cc(O[C@@H]3O[C@H](CO)[C@@H](O)[C@H](O)[C@H]3O)cc(O)c12,303.2,ethanol,CCO,3.28e-05,0.0005558885816166082,-3.2550122466159266,Genistin,529-59-9,5281377,No,10.1016/j.jct.2015.05.019
O=c1c(-c2ccc(O)cc2)coc2cc(O[C@@H]3O[C@H](CO)[C@@H](O)[C@H](O)[C@H]3O)cc(O)c12,313.2,ethanol,CCO,3.72e-05,0.0006234054225940267,-3.205229424400499,Genistin,529-59-9,5281377,No,10.1016/j.jct.2015.05.019
O=c1c(-c2ccc(O)cc2)coc2cc(O[C@@H]3O[C@H](CO)[C@@H](O)[C@H](O)[C@H]3O)cc(O)c12,323.2,ethanol,CCO,4.383e-05,0.000726203194919729,-3.1389418447470643,Genistin,529-59-9,5281377,No,10.1016/j.jct.2015.05.019
O=C(O)CCCCCCCCCCCC(=O)O,283.15,ethanol,CCO,0.00277,0.04809066626722554,-1.317939205995956,Tridecanedioic acid,505-52-2,10458,No,10.1016/j.jct.2015.05.026
O=C(O)CCCCCCCCCCCC(=O)O,288.15,ethanol,CCO,0.00286,0.049389947428768906,-1.3063614361062736,Tridecanedioic acid,505-52-2,10458,No,10.1016/j.jct.2015.05.026
O=C(O)CCCCCCCCCCCC(=O)O,293.15,ethanol,CCO,0.00388,0.0667560941114094,-1.175509081751421,Tridecanedioic acid,505-52-2,10458,No,10.1016/j.jct.2015.05.026
O=C(O)CCCCCCCCCCCC(=O)O,298.15,ethanol,CCO,0.00441,0.07551909272733058,-1.1219432362137052,Tridecanedioic acid,505-52-2,10458,No,10.1016/j.jct.2015.05.026
O=C(O)CCCCCCCCCCCC(=O)O,303.15,ethanol,CCO,0.00674,0.11502270795622459,-0.9392164121112575,Tridecanedioic acid,505-52-2,10458,No,10.1016/j.jct.2015.05.026
O=C(O)CCCCCCCCCCCC(=O)O,308.15,ethanol,CCO,0.01148,0.19571908149854766,-0.7083668310331314,Tridecanedioic acid,505-52-2,10458,No,10.1016/j.jct.2015.05.026
O=C(O)CCCCCCCCCCCC(=O)O,313.15,ethanol,CCO,0.01485,0.2526541036319052,-0.597473643516315,Tridecanedioic acid,505-52-2,10458,No,10.1016/j.jct.2015.05.026
O=C(O)CCCCCCCCCCCC(=O)O,318.15,ethanol,CCO,0.02071,0.3523897342161686,-0.4529767519007678,Tridecanedioic acid,505-52-2,10458,No,10.1016/j.jct.2015.05.026
O=C(O)CCCCCCCCCCCC(=O)O,323.15,ethanol,CCO,0.02633,0.4479903369224008,-0.34873135356109575,Tridecanedioic acid,505-52-2,10458,No,10.1016/j.jct.2015.05.026
O=[N+]([O-])c1nonc1-c1no[n+]([O-])c1-c1nonc1[N+](=O)[O-],298.15,ethanol,CCO,0.0081,0.1392245518815934,-0.8562841712881902,"3,4-bis(3-nitrofurazan-4-yl)furoxan",,605902,No,10.1016/j.jct.2015.06.003
O=[N+]([O-])c1nonc1-c1no[n+]([O-])c1-c1nonc1[N+](=O)[O-],303.15,ethanol,CCO,0.0094,0.16084818602028753,-0.7935838325290094,"3,4-bis(3-nitrofurazan-4-yl)furoxan",,605902,No,10.1016/j.jct.2015.06.003
O=[N+]([O-])c1nonc1-c1no[n+]([O-])c1-c1nonc1[N+](=O)[O-],308.15,ethanol,CCO,0.011,0.18744468692837124,-0.7271268650337982,"3,4-bis(3-nitrofurazan-4-yl)furoxan",,605902,No,10.1016/j.jct.2015.06.003
O=[N+]([O-])c1nonc1-c1no[n+]([O-])c1-c1nonc1[N+](=O)[O-],313.15,ethanol,CCO,0.0129,0.21904372830314636,-0.6594691771004095,"3,4-bis(3-nitrofurazan-4-yl)furoxan",,605902,No,10.1016/j.jct.2015.06.003
O=[N+]([O-])c1nonc1-c1no[n+]([O-])c1-c1nonc1[N+](=O)[O-],318.15,ethanol,CCO,0.0152,0.2571875947954238,-0.5897499830332862,"3,4-bis(3-nitrofurazan-4-yl)furoxan",,605902,No,10.1016/j.jct.2015.06.003
O=[N+]([O-])c1nonc1-c1no[n+]([O-])c1-c1nonc1[N+](=O)[O-],323.15,ethanol,CCO,0.0185,0.3122561500945551,-0.5054889991481417,"3,4-bis(3-nitrofurazan-4-yl)furoxan",,605902,No,10.1016/j.jct.2015.06.003
O=[N+]([O-])c1nonc1-c1no[n+]([O-])c1-c1nonc1[N+](=O)[O-],328.15,ethanol,CCO,0.0223,0.37558072930138575,-0.42529669908104323,"3,4-bis(3-nitrofurazan-4-yl)furoxan",,605902,No,10.1016/j.jct.2015.06.003
O=[N+]([O-])c1nonc1-c1no[n+]([O-])c1-c1nonc1[N+](=O)[O-],333.15,ethanol,CCO,0.0273,0.4595964077939839,-0.3376233744166232,"3,4-bis(3-nitrofurazan-4-yl)furoxan",,605902,No,10.1016/j.jct.2015.06.003
O=[N+]([O-])c1nonc1-c1no[n+]([O-])c1-c1nonc1[N+](=O)[O-],338.15,ethanol,CCO,0.0335,0.5644337765526524,-0.2483870053154229,"3,4-bis(3-nitrofurazan-4-yl)furoxan",,605902,No,10.1016/j.jct.2015.06.003
O=[N+]([O-])c1cccc2cccc([N+](=O)[O-])c12,273.15,ethanol,CCO,0.0002416,0.004233191461976736,-2.373332088483335,"1,8-dinitronaphthalene",602-38-0,11764,No,10.1016/j.jct.2015.07.010
O=[N+]([O-])c1cccc2cccc([N+](=O)[O-])c12,275.65,ethanol,CCO,0.0002668,0.004662195768393647,-2.3314094941470547,"1,8-dinitronaphthalene",602-38-0,11764,No,10.1016/j.jct.2015.07.010
O=[N+]([O-])c1cccc2cccc([N+](=O)[O-])c12,278.15,ethanol,CCO,0.000294,0.005123696296357056,-2.2904166206770067,"1,8-dinitronaphthalene",602-38-0,11764,No,10.1016/j.jct.2015.07.010
O=[N+]([O-])c1cccc2cccc([N+](=O)[O-])c12,280.65,ethanol,CCO,0.0003234,0.005620891103542014,-2.2501948284393016,"1,8-dinitronaphthalene",602-38-0,11764,No,10.1016/j.jct.2015.07.010
O=[N+]([O-])c1cccc2cccc([N+](=O)[O-])c12,283.15,ethanol,CCO,0.0003505,0.006070390495025075,-2.2167833708061573,"1,8-dinitronaphthalene",602-38-0,11764,No,10.1016/j.jct.2015.07.010
O=[N+]([O-])c1cccc2cccc([N+](=O)[O-])c12,285.65,ethanol,CCO,0.0003848,0.006651963259798554,-2.177050158146267,"1,8-dinitronaphthalene",602-38-0,11764,No,10.1016/j.jct.2015.07.010
O=[N+]([O-])c1cccc2cccc([N+](=O)[O-])c12,288.15,ethanol,CCO,0.0004275,0.007364622469313645,-2.132849511373457,"1,8-dinitronaphthalene",602-38-0,11764,No,10.1016/j.jct.2015.07.010
O=[N+]([O-])c1cccc2cccc([N+](=O)[O-])c12,291.15,ethanol,CCO,0.0004841,0.008318846907811327,-2.0799368679737276,"1,8-dinitronaphthalene",602-38-0,11764,No,10.1016/j.jct.2015.07.010
O=[N+]([O-])c1cccc2cccc([N+](=O)[O-])c12,293.15,ethanol,CCO,0.0005288,0.00906759292008376,-2.042507985295599,"1,8-dinitronaphthalene",602-38-0,11764,No,10.1016/j.jct.2015.07.010
O=[N+]([O-])c1cccc2cccc([N+](=O)[O-])c12,295.65,ethanol,CCO,0.0005838,0.009983247526441762,-2.0007281607776046,"1,8-dinitronaphthalene",602-38-0,11764,No,10.1016/j.jct.2015.07.010
O=[N+]([O-])c1cccc2cccc([N+](=O)[O-])c12,298.15,ethanol,CCO,0.0006456,0.011013939660201316,-1.9580573071277878,"1,8-dinitronaphthalene",602-38-0,11764,No,10.1016/j.jct.2015.07.010
O=[N+]([O-])c1cccc2cccc([N+](=O)[O-])c12,300.65,ethanol,CCO,0.0007101,0.012077176474367618,-1.9180345876463545,"1,8-dinitronaphthalene",602-38-0,11764,No,10.1016/j.jct.2015.07.010
O=[N+]([O-])c1cccc2cccc([N+](=O)[O-])c12,303.15,ethanol,CCO,0.0007889,0.013382934232162733,-1.8734486562895611,"1,8-dinitronaphthalene",602-38-0,11764,No,10.1016/j.jct.2015.07.010
O=[N+]([O-])c1cccc2cccc([N+](=O)[O-])c12,305.65,ethanol,CCO,0.0008775,0.014843472900644958,-1.8284644760698006,"1,8-dinitronaphthalene",602-38-0,11764,No,10.1016/j.jct.2015.07.010
O=[N+]([O-])c1cccc2cccc([N+](=O)[O-])c12,308.15,ethanol,CCO,0.0009938,0.016765154122972116,-1.7755924497240574,"1,8-dinitronaphthalene",602-38-0,11764,No,10.1016/j.jct.2015.07.010
CC1=C(O)C(=O)C(C)O1,283.15,ethanol,CCO,0.1201,2.3631214903039135,0.3734860496951216,"4-hydroxy-2,5-dimethyl-3(2H)-furanone (DMHF)",3658-77-3,19309,No,10.1016/j.jct.2015.08.028
CC1=C(O)C(=O)C(C)O1,288.15,ethanol,CCO,0.1508,3.0578770890133082,0.4854200250148024,"4-hydroxy-2,5-dimethyl-3(2H)-furanone (DMHF)",3658-77-3,19309,No,10.1016/j.jct.2015.08.028
CC1=C(O)C(=O)C(C)O1,293.15,ethanol,CCO,0.1881,3.9706088542793743,0.5988571067075743,"4-hydroxy-2,5-dimethyl-3(2H)-furanone (DMHF)",3658-77-3,19309,No,10.1016/j.jct.2015.08.028
CC1=C(O)C(=O)C(C)O1,298.15,ethanol,CCO,0.2341,5.211083645313208,0.7169280442675889,"4-hydroxy-2,5-dimethyl-3(2H)-furanone (DMHF)",3658-77-3,19309,No,10.1016/j.jct.2015.08.028
CC1=C(O)C(=O)C(C)O1,303.15,ethanol,CCO,0.2867,6.813058318641178,0.8333421064435304,"4-hydroxy-2,5-dimethyl-3(2H)-furanone (DMHF)",3658-77-3,19309,No,10.1016/j.jct.2015.08.028
CC1=C(O)C(=O)C(C)O1,308.15,ethanol,CCO,0.3513,9.126641536813416,0.9603109932669549,"4-hydroxy-2,5-dimethyl-3(2H)-furanone (DMHF)",3658-77-3,19309,No,10.1016/j.jct.2015.08.028
CC1=C(O)C(=O)C(C)O1,313.15,ethanol,CCO,0.42710000000000004,12.495482012940023,1.096753013685554,"4-hydroxy-2,5-dimethyl-3(2H)-furanone (DMHF)",3658-77-3,19309,No,10.1016/j.jct.2015.08.028
Cc1ccc(C(C)C)c(O)c1,279.15,ethanol,CCO,0.4339,13.339260804718679,1.125131763813929,Thymol,89-83-8,6989,Yes,10.1016/j.jct.2015.09.010
Cc1ccc(C(C)C)c(O)c1,283.15,ethanol,CCO,0.4726,15.514220219686134,1.1907299518313648,Thymol,89-83-8,6989,Yes,10.1016/j.jct.2015.09.010
Cc1ccc(C(C)C)c(O)c1,288.25,ethanol,CCO,0.5083,17.812558468753902,1.2507263029029299,Thymol,89-83-8,6989,Yes,10.1016/j.jct.2015.09.010