SMILES_Solute,Temperature_K,Solvent,SMILES_Solvent,Solubility(mole_fraction),Solubility(mol/L),LogS(mol/L),Compound_Name,CAS,PubChem_CID,FDA_Approved,Source
CC[C@@H](C(=O)[C@@H](C)[C@@H](O)[C@H](C)CCc1ccc(C)c(O)c1C(=O)[O-])[C@H]1O[C@](CC)([C@H]2CC[C@](O)(CC)[C@H](C)O2)C[C@@H]1C.[Na+],303.15,ethanol,CCO,0.00364,0.06192581588268279,-1.2081282628040906,Lasalocid sodium,25999-20-6,6426773,No,10.1016/j.fluid.2014.04.008
CC[C@@H](C(=O)[C@@H](C)[C@@H](O)[C@H](C)CCc1ccc(C)c(O)c1C(=O)[O-])[C@H]1O[C@](CC)([C@H]2CC[C@](O)(CC)[C@H](C)O2)C[C@@H]1C.[Na+],308.15,ethanol,CCO,0.00419,0.07091110960463862,-1.149285718808211,Lasalocid sodium,25999-20-6,6426773,No,10.1016/j.fluid.2014.04.008
CC[C@@H](C(=O)[C@@H](C)[C@@H](O)[C@H](C)CCc1ccc(C)c(O)c1C(=O)[O-])[C@H]1O[C@](CC)([C@H]2CC[C@](O)(CC)[C@H](C)O2)C[C@@H]1C.[Na+],313.15,ethanol,CCO,0.00456,0.07678069148718489,-1.1147479809433285,Lasalocid sodium,25999-20-6,6426773,No,10.1016/j.fluid.2014.04.008
CC[C@@H](C(=O)[C@@H](C)[C@@H](O)[C@H](C)CCc1ccc(C)c(O)c1C(=O)[O-])[C@H]1O[C@](CC)([C@H]2CC[C@](O)(CC)[C@H](C)O2)C[C@@H]1C.[Na+],318.15,ethanol,CCO,0.005019999999999999,0.08407053961146517,-1.075356165030445,Lasalocid sodium,25999-20-6,6426773,No,10.1016/j.fluid.2014.04.008
CC[C@@H](C(=O)[C@@H](C)[C@@H](O)[C@H](C)CCc1ccc(C)c(O)c1C(=O)[O-])[C@H]1O[C@](CC)([C@H]2CC[C@](O)(CC)[C@H](C)O2)C[C@@H]1C.[Na+],323.15,ethanol,CCO,0.00564,0.09396476559321193,-1.0270349653049202,Lasalocid sodium,25999-20-6,6426773,No,10.1016/j.fluid.2014.04.008
Cc1nc2n(c(=O)c1CCN1CCC(c3noc4cc(F)ccc34)CC1)CCCC2,278.15,ethanol,CCO,0.00096,0.01674159006408087,-1.7762032964465984,Risperidone,106266-06-2,5073,Yes,10.1016/j.fluid.2014.04.028
Cc1nc2n(c(=O)c1CCN1CCC(c3noc4cc(F)ccc34)CC1)CCCC2,283.15,ethanol,CCO,0.00108,0.01871842945305065,-1.727730593017113,Risperidone,106266-06-2,5073,Yes,10.1016/j.fluid.2014.04.028
Cc1nc2n(c(=O)c1CCN1CCC(c3noc4cc(F)ccc34)CC1)CCCC2,288.15,ethanol,CCO,0.00131,0.02258755709652744,-1.6461307366257893,Risperidone,106266-06-2,5073,Yes,10.1016/j.fluid.2014.04.028
Cc1nc2n(c(=O)c1CCN1CCC(c3noc4cc(F)ccc34)CC1)CCCC2,293.15,ethanol,CCO,0.00153,0.026261967695464114,-1.58067273722342,Risperidone,106266-06-2,5073,Yes,10.1016/j.fluid.2014.04.028
Cc1nc2n(c(=O)c1CCN1CCC(c3noc4cc(F)ccc34)CC1)CCCC2,298.15,ethanol,CCO,0.002009,0.03432037401656066,-1.4644479879432812,Risperidone,106266-06-2,5073,Yes,10.1016/j.fluid.2014.04.028
Cc1nc2n(c(=O)c1CCN1CCC(c3noc4cc(F)ccc34)CC1)CCCC2,303.15,ethanol,CCO,0.00248,0.042142151729673435,-1.3752832935863317,Risperidone,106266-06-2,5073,Yes,10.1016/j.fluid.2014.04.028
Cc1nc2n(c(=O)c1CCN1CCC(c3noc4cc(F)ccc34)CC1)CCCC2,308.15,ethanol,CCO,0.0033,0.05579897522990644,-1.253373776977898,Risperidone,106266-06-2,5073,Yes,10.1016/j.fluid.2014.04.028
Cc1nc2n(c(=O)c1CCN1CCC(c3noc4cc(F)ccc34)CC1)CCCC2,313.15,ethanol,CCO,0.004151,0.06986529646792958,-1.1557384937112058,Risperidone,106266-06-2,5073,Yes,10.1016/j.fluid.2014.04.028
Cc1nc2n(c(=O)c1CCN1CCC(c3noc4cc(F)ccc34)CC1)CCCC2,318.15,ethanol,CCO,0.0051,0.08541717701779869,-1.0684547858224664,Risperidone,106266-06-2,5073,Yes,10.1016/j.fluid.2014.04.028
Cc1nc2n(c(=O)c1CCN1CCC(c3noc4cc(F)ccc34)CC1)CCCC2,323.15,ethanol,CCO,0.00677,0.11291936216953892,-0.9472315836515084,Risperidone,106266-06-2,5073,Yes,10.1016/j.fluid.2014.04.028
O=C(O)CC(O)C(=O)O,298.15,ethanol,CCO,0.109,2.0856791229493044,0.3192474939986262,Malic acid,6915-15-7,525,Yes,10.1016/j.fluid.2014.06.017
O=C(O)CC(O)C(=O)O,303.15,ethanol,CCO,0.12,2.311453767964654,0.36388521141518526,Malic acid,6915-15-7,525,Yes,10.1016/j.fluid.2014.06.017
O=C(O)CC(O)C(=O)O,308.15,ethanol,CCO,0.136,2.652784108860864,0.42370190729648044,Malic acid,6915-15-7,525,Yes,10.1016/j.fluid.2014.06.017
O=C(O)CC(O)C(=O)O,313.15,ethanol,CCO,0.148,2.9115508882692156,0.46412438513659976,Malic acid,6915-15-7,525,Yes,10.1016/j.fluid.2014.06.017
O=C(O)CC(O)C(=O)O,318.15,ethanol,CCO,0.165,3.2926982865977004,0.5175519376755054,Malic acid,6915-15-7,525,Yes,10.1016/j.fluid.2014.06.017
O=C(O)CC(O)C(=O)O,323.15,ethanol,CCO,0.184,3.7355731109218517,0.5723572406405448,Malic acid,6915-15-7,525,Yes,10.1016/j.fluid.2014.06.017
O=C(O)CC(O)C(=O)O,328.15,ethanol,CCO,0.207,4.298344412762949,0.6333012111949167,Malic acid,6915-15-7,525,Yes,10.1016/j.fluid.2014.06.017
O=C(O)CC(O)C(=O)O,333.15,ethanol,CCO,0.227,4.808828154921563,0.6820392576929006,Malic acid,6915-15-7,525,Yes,10.1016/j.fluid.2014.06.017
CCn1c2ccccc2c2ccccc21,279.15,ethanol,CCO,0.0069,0.12091811753392392,-0.9175086225841393,N-ethylcarbazole,86-28-2,6836,No,10.1016/j.fluid.2014.06.030
CCn1c2ccccc2c2ccccc21,283.15,ethanol,CCO,0.008,0.13962226365920963,-0.8550453251698049,N-ethylcarbazole,86-28-2,6836,No,10.1016/j.fluid.2014.06.030
CCn1c2ccccc2c2ccccc21,287.15,ethanol,CCO,0.0095,0.16546307647825134,-0.7812989050351937,N-ethylcarbazole,86-28-2,6836,No,10.1016/j.fluid.2014.06.030
CCn1c2ccccc2c2ccccc21,291.15,ethanol,CCO,0.0112,0.19454824679889343,-0.7109726785533612,N-ethylcarbazole,86-28-2,6836,No,10.1016/j.fluid.2014.06.030
CCn1c2ccccc2c2ccccc21,295.15,ethanol,CCO,0.013,0.2252274234363791,-0.6473787313961794,N-ethylcarbazole,86-28-2,6836,No,10.1016/j.fluid.2014.06.030
CCn1c2ccccc2c2ccccc21,299.15,ethanol,CCO,0.0149,0.25749558132322703,-0.5892302191408678,N-ethylcarbazole,86-28-2,6836,No,10.1016/j.fluid.2014.06.030
CCn1c2ccccc2c2ccccc21,303.15,ethanol,CCO,0.0182,0.31422084901644853,-0.5027650022610467,N-ethylcarbazole,86-28-2,6836,No,10.1016/j.fluid.2014.06.030
CCn1c2ccccc2c2ccccc21,307.15,ethanol,CCO,0.0228,0.3936649862816304,-0.4048732109169172,N-ethylcarbazole,86-28-2,6836,No,10.1016/j.fluid.2014.06.030
CCn1c2ccccc2c2ccccc21,311.15,ethanol,CCO,0.0274,0.4731886820572146,-0.3249656515734419,N-ethylcarbazole,86-28-2,6836,No,10.1016/j.fluid.2014.06.030
CCn1c2ccccc2c2ccccc21,315.15,ethanol,CCO,0.0355,0.6154290051933066,-0.21082203929013466,N-ethylcarbazole,86-28-2,6836,No,10.1016/j.fluid.2014.06.030
CCn1c2ccccc2c2ccccc21,319.15,ethanol,CCO,0.0433,0.7533361505789351,-0.12301119144137936,N-ethylcarbazole,86-28-2,6836,No,10.1016/j.fluid.2014.06.030
O=C(O)CN(CC(=O)O)CP(=O)(O)O,298.15,ethanol,CCO,3.2e-05,0.000545585194079702,-3.2631374239394324,N-(phosphonomethyl)iminodiacetic acid,5994-61-6,80092,No,10.1016/j.fluid.2014.08.036
O=C(O)CN(CC(=O)O)CP(=O)(O)O,303.15,ethanol,CCO,7.85e-05,0.0013307313481691503,-2.8759096122820034,N-(phosphonomethyl)iminodiacetic acid,5994-61-6,80092,No,10.1016/j.fluid.2014.08.036
O=C(O)CN(CC(=O)O)CP(=O)(O)O,308.15,ethanol,CCO,0.0001017,0.0017141225343843458,-2.765958135677207,N-(phosphonomethyl)iminodiacetic acid,5994-61-6,80092,No,10.1016/j.fluid.2014.08.036
O=C(O)CN(CC(=O)O)CP(=O)(O)O,313.15,ethanol,CCO,0.0001387,0.002325085706880146,-2.633561033595935,N-(phosphonomethyl)iminodiacetic acid,5994-61-6,80092,No,10.1016/j.fluid.2014.08.036
O=C(O)CN(CC(=O)O)CP(=O)(O)O,318.15,ethanol,CCO,0.0001964,0.003273265674301482,-2.4850187437905134,N-(phosphonomethyl)iminodiacetic acid,5994-61-6,80092,No,10.1016/j.fluid.2014.08.036
O=C(O)CN(CC(=O)O)CP(=O)(O)O,323.15,ethanol,CCO,0.0003586,0.0059428617533904505,-2.226004372457255,N-(phosphonomethyl)iminodiacetic acid,5994-61-6,80092,No,10.1016/j.fluid.2014.08.036
O=C(O)CN(CC(=O)O)CP(=O)(O)O,333.15,ethanol,CCO,0.0007334,0.012018559793679792,-1.9201475715289538,N-(phosphonomethyl)iminodiacetic acid,5994-61-6,80092,No,10.1016/j.fluid.2014.08.036
O=C(O)CN(CC(=O)O)CP(=O)(O)O,343.15,ethanol,CCO,0.0017649,0.028623358417307263,-1.543279411228417,N-(phosphonomethyl)iminodiacetic acid,5994-61-6,80092,No,10.1016/j.fluid.2014.08.036
N=C(N)N.O=[N+]([O-])O,278.05,ethanol,CCO,0.003,0.05243022525108327,-1.2804182764634202,Guanidine nitrate,506-93-4,10481,No,10.1016/j.fluid.2014.12.037
N=C(N)N.O=[N+]([O-])O,283.15,ethanol,CCO,0.0037,0.0642965919570866,-1.1918120462586226,Guanidine nitrate,506-93-4,10481,No,10.1016/j.fluid.2014.12.037
N=C(N)N.O=[N+]([O-])O,288.35,ethanol,CCO,0.0043,0.07440438639785842,-1.12840146052628,Guanidine nitrate,506-93-4,10481,No,10.1016/j.fluid.2014.12.037
N=C(N)N.O=[N+]([O-])O,293.15,ethanol,CCO,0.0051,0.08785401174285541,-1.0562384022050566,Guanidine nitrate,506-93-4,10481,No,10.1016/j.fluid.2014.12.037
N=C(N)N.O=[N+]([O-])O,298.25,ethanol,CCO,0.0062,0.10631432995622293,-0.9734081936002057,Guanidine nitrate,506-93-4,10481,No,10.1016/j.fluid.2014.12.037
N=C(N)N.O=[N+]([O-])O,303.25,ethanol,CCO,0.007,0.11946045141720511,-0.9227758484736713,Guanidine nitrate,506-93-4,10481,No,10.1016/j.fluid.2014.12.037
N=C(N)N.O=[N+]([O-])O,308.25,ethanol,CCO,0.0081,0.13761162924751877,-0.861344863305332,Guanidine nitrate,506-93-4,10481,No,10.1016/j.fluid.2014.12.037
N=C(N)N.O=[N+]([O-])O,313.05,ethanol,CCO,0.0094,0.1590430663474456,-0.798485259676279,Guanidine nitrate,506-93-4,10481,No,10.1016/j.fluid.2014.12.037
N=C(N)N.O=[N+]([O-])O,318.05,ethanol,CCO,0.0108,0.18195349300754216,-0.7400396027359505,Guanidine nitrate,506-93-4,10481,No,10.1016/j.fluid.2014.12.037
N=C(N)N.O=[N+]([O-])O,323.25,ethanol,CCO,0.0124,0.20800960622634476,-0.6819166081393604,Guanidine nitrate,506-93-4,10481,No,10.1016/j.fluid.2014.12.037
N=C(N)N.O=[N+]([O-])O,328.35,ethanol,CCO,0.0143,0.23894103016231988,-0.621709268236414,Guanidine nitrate,506-93-4,10481,No,10.1016/j.fluid.2014.12.037
N[C@@H](C(=O)N[C@@H]1C(=O)N2C(C(=O)O)=C(Cl)CS[C@H]12)c1ccccc1.O,278.15,ethanol,CCO,2.364e-05,0.0004118756208785542,-3.3852339133877374,Cefaclor,70356-03-5,51038,Yes,10.1016/j.fluid.2015.01.001
N[C@@H](C(=O)N[C@@H]1C(=O)N2C(C(=O)O)=C(Cl)CS[C@H]12)c1ccccc1.O,283.15,ethanol,CCO,3.047e-05,0.0005275480807283384,-3.2777379526304244,Cefaclor,70356-03-5,51038,Yes,10.1016/j.fluid.2015.01.001
N[C@@H](C(=O)N[C@@H]1C(=O)N2C(C(=O)O)=C(Cl)CS[C@H]12)c1ccccc1.O,288.15,ethanol,CCO,3.859e-05,0.0006645385925136354,-3.1774797927061567,Cefaclor,70356-03-5,51038,Yes,10.1016/j.fluid.2015.01.001
N[C@@H](C(=O)N[C@@H]1C(=O)N2C(C(=O)O)=C(Cl)CS[C@H]12)c1ccccc1.O,293.15,ethanol,CCO,4.764e-05,0.0008165133609162278,-3.088036704344685,Cefaclor,70356-03-5,51038,Yes,10.1016/j.fluid.2015.01.001
N[C@@H](C(=O)N[C@@H]1C(=O)N2C(C(=O)O)=C(Cl)CS[C@H]12)c1ccccc1.O,298.15,ethanol,CCO,5.706e-05,0.0009728709801203202,-3.0119447510339032,Cefaclor,70356-03-5,51038,Yes,10.1016/j.fluid.2015.01.001
N[C@@H](C(=O)N[C@@H]1C(=O)N2C(C(=O)O)=C(Cl)CS[C@H]12)c1ccccc1.O,303.15,ethanol,CCO,6.721e-05,0.0011393304978653937,-2.943350277168425,Cefaclor,70356-03-5,51038,Yes,10.1016/j.fluid.2015.01.001
N[C@@H](C(=O)N[C@@H]1C(=O)N2C(C(=O)O)=C(Cl)CS[C@H]12)c1ccccc1.O,308.15,ethanol,CCO,7.921e-05,0.0013350304042518413,-2.874508843476604,Cefaclor,70356-03-5,51038,Yes,10.1016/j.fluid.2015.01.001
N[C@@H](C(=O)N[C@@H]1C(=O)N2C(C(=O)O)=C(Cl)CS[C@H]12)c1ccccc1.O,313.15,ethanol,CCO,9.546e-05,0.0016001664270265889,-2.7958348457312856,Cefaclor,70356-03-5,51038,Yes,10.1016/j.fluid.2015.01.001
Clc1ccc(-c2c3nc(c(-c4ccc(Cl)cc4)c4ccc([nH]4)c(-c4ccc(Cl)cc4)c4nc(c(-c5ccc(Cl)cc5)c5ccc2[nH]5)C=C4)C=C3)cc1,293.2,ethanol,CCO,1.2738e-06,2.182907033909121e-05,-4.660964759719172,"5,10,15,20-tetra(p-chlorophenyl)porphyrin (p-ClTPP)",22112-77-2,135403279,No,10.1016/j.fluid.2015.01.008
Clc1ccc(-c2c3nc(c(-c4ccc(Cl)cc4)c4ccc([nH]4)c(-c4ccc(Cl)cc4)c4nc(c(-c5ccc(Cl)cc5)c5ccc2[nH]5)C=C4)C=C3)cc1,303.2,ethanol,CCO,1.6254e-06,2.754613210290314e-05,-4.559939374100597,"5,10,15,20-tetra(p-chlorophenyl)porphyrin (p-ClTPP)",22112-77-2,135403279,No,10.1016/j.fluid.2015.01.008
Clc1ccc(-c2c3nc(c(-c4ccc(Cl)cc4)c4ccc([nH]4)c(-c4ccc(Cl)cc4)c4nc(c(-c5ccc(Cl)cc5)c5ccc2[nH]5)C=C4)C=C3)cc1,313.2,ethanol,CCO,1.926e-06,3.227517449163934e-05,-4.491131401097134,"5,10,15,20-tetra(p-chlorophenyl)porphyrin (p-ClTPP)",22112-77-2,135403279,No,10.1016/j.fluid.2015.01.008
Clc1ccc(-c2c3nc(c(-c4ccc(Cl)cc4)c4ccc([nH]4)c(-c4ccc(Cl)cc4)c4nc(c(-c5ccc(Cl)cc5)c5ccc2[nH]5)C=C4)C=C3)cc1,323.2,ethanol,CCO,2.2509e-06,3.7292785892017046e-05,-4.428375172220956,"5,10,15,20-tetra(p-chlorophenyl)porphyrin (p-ClTPP)",22112-77-2,135403279,No,10.1016/j.fluid.2015.01.008
Clc1ccc(-c2c3nc(c(-c4ccc(Cl)cc4)c4ccc([nH]4)c(-c4ccc(Cl)cc4)c4nc(c(-c5ccc(Cl)cc5)c5ccc2[nH]5)C=C4)C=C3)cc1,333.2,ethanol,CCO,2.6259e-06,4.300769972455376e-05,-4.36645378515222,"5,10,15,20-tetra(p-chlorophenyl)porphyrin (p-ClTPP)",22112-77-2,135403279,No,10.1016/j.fluid.2015.01.008
CP(=O)(O)O,288.38,ethanol,CCO,0.4127,12.106503025281544,1.0830187148900505,Methylphosphonic acid,993-13-5,13818,No,10.1016/j.fluid.2015.01.009
CP(=O)(O)O,293.25,ethanol,CCO,0.4443,13.70078096925475,1.1367453234316638,Methylphosphonic acid,993-13-5,13818,No,10.1016/j.fluid.2015.01.009
CP(=O)(O)O,298.25,ethanol,CCO,0.4778,15.5922355588003,1.192908387237988,Methylphosphonic acid,993-13-5,13818,No,10.1016/j.fluid.2015.01.009
CP(=O)(O)O,303.17,ethanol,CCO,0.5085,17.53402743555271,1.2438816817609117,Methylphosphonic acid,993-13-5,13818,No,10.1016/j.fluid.2015.01.009
CP(=O)(O)O,308.4,ethanol,CCO,0.5409,19.850633195095035,1.2977743644366568,Methylphosphonic acid,993-13-5,13818,No,10.1016/j.fluid.2015.01.009
CP(=O)(O)O,313.32,ethanol,CCO,0.5754,22.706089941145255,1.356142353806409,Methylphosphonic acid,993-13-5,13818,No,10.1016/j.fluid.2015.01.009
CP(=O)(O)O,318.44,ethanol,CCO,0.605,25.514450021273618,1.406786211300415,Methylphosphonic acid,993-13-5,13818,No,10.1016/j.fluid.2015.01.009
O=c1ccc2ccccc2o1,278.15,ethanol,CCO,0.007102,0.12461903376674124,-0.9044156203690065,Coumarin,91-64-5,323,Yes,10.1016/j.fluid.2015.03.022
O=c1ccc2ccccc2o1,283.15,ethanol,CCO,0.01096,0.1918549716931694,-0.7170269420954137,Coumarin,91-64-5,323,Yes,10.1016/j.fluid.2015.03.022
O=c1ccc2ccccc2o1,288.15,ethanol,CCO,0.02052,0.3607534165822525,-0.4427895471484172,Coumarin,91-64-5,323,Yes,10.1016/j.fluid.2015.03.022
O=c1ccc2ccccc2o1,293.15,ethanol,CCO,0.03308,0.5863349876341825,-0.2318541899306776,Coumarin,91-64-5,323,Yes,10.1016/j.fluid.2015.03.022
O=c1ccc2ccccc2o1,298.15,ethanol,CCO,0.05332,0.9602529249934034,-0.01761436127128924,Coumarin,91-64-5,323,Yes,10.1016/j.fluid.2015.03.022
O=c1ccc2ccccc2o1,303.15,ethanol,CCO,0.08691,1.613402780092425,0.20774280095066605,Coumarin,91-64-5,323,Yes,10.1016/j.fluid.2015.03.022
O=c1ccc2ccccc2o1,308.15,ethanol,CCO,0.1378,2.6935059575170848,0.4303179404588939,Coumarin,91-64-5,323,Yes,10.1016/j.fluid.2015.03.022
O=c1ccc2ccccc2o1,313.15,ethanol,CCO,0.2216,4.771656730612261,0.6786691933044391,Coumarin,91-64-5,323,Yes,10.1016/j.fluid.2015.03.022
O=c1ccc2ccccc2o1,318.15,ethanol,CCO,0.3568,9.243432601476327,0.9658332789088918,Coumarin,91-64-5,323,Yes,10.1016/j.fluid.2015.03.022
CNC[C@H](O)[C@@H](O)[C@H](O)[C@H](O)CO.Cc1c(Nc2ncccc2C(=O)O)cccc1C(F)(F)F,283.15,ethanol,CCO,0.002853,0.049535773019671034,-1.305081055331004,Flunixin meglumine,42461-84-7,39212,No,10.1016/j.fluid.2015.06.026
CNC[C@H](O)[C@@H](O)[C@H](O)[C@H](O)CO.Cc1c(Nc2ncccc2C(=O)O)cccc1C(F)(F)F,288.15,ethanol,CCO,0.003526,0.06093193994457547,-1.2151549946342317,Flunixin meglumine,42461-84-7,39212,No,10.1016/j.fluid.2015.06.026
CNC[C@H](O)[C@@H](O)[C@H](O)[C@H](O)CO.Cc1c(Nc2ncccc2C(=O)O)cccc1C(F)(F)F,293.15,ethanol,CCO,0.004476,0.07705648528353294,-1.1131908040016878,Flunixin meglumine,42461-84-7,39212,No,10.1016/j.fluid.2015.06.026
CNC[C@H](O)[C@@H](O)[C@H](O)[C@H](O)CO.Cc1c(Nc2ncccc2C(=O)O)cccc1C(F)(F)F,298.15,ethanol,CCO,0.005763,0.09882285545480388,-1.0051426014651386,Flunixin meglumine,42461-84-7,39212,No,10.1016/j.fluid.2015.06.026
CNC[C@H](O)[C@@H](O)[C@H](O)[C@H](O)CO.Cc1c(Nc2ncccc2C(=O)O)cccc1C(F)(F)F,303.15,ethanol,CCO,0.007753,0.13244532305184065,-0.8779633730303215,Flunixin meglumine,42461-84-7,39212,No,10.1016/j.fluid.2015.06.026
CNC[C@H](O)[C@@H](O)[C@H](O)[C@H](O)CO.Cc1c(Nc2ncccc2C(=O)O)cccc1C(F)(F)F,308.15,ethanol,CCO,0.01128,0.19227044073494062,-0.7160874781767758,Flunixin meglumine,42461-84-7,39212,No,10.1016/j.fluid.2015.06.026
CNC[C@H](O)[C@@H](O)[C@H](O)[C@H](O)CO.Cc1c(Nc2ncccc2C(=O)O)cccc1C(F)(F)F,313.15,ethanol,CCO,0.01616,0.27530819891318575,-0.5601808547536633,Flunixin meglumine,42461-84-7,39212,No,10.1016/j.fluid.2015.06.026
CNC[C@H](O)[C@@H](O)[C@H](O)[C@H](O)CO.Cc1c(Nc2ncccc2C(=O)O)cccc1C(F)(F)F,318.15,ethanol,CCO,0.02282,0.3891307394849446,-0.4099044606344966,Flunixin meglumine,42461-84-7,39212,No,10.1016/j.fluid.2015.06.026
CNC[C@H](O)[C@@H](O)[C@H](O)[C@H](O)CO.Cc1c(Nc2ncccc2C(=O)O)cccc1C(F)(F)F,323.15,ethanol,CCO,0.03451,0.5921432127911234,-0.22757324428544773,Flunixin meglumine,42461-84-7,39212,No,10.1016/j.fluid.2015.06.026
CNC[C@H](O)[C@@H](O)[C@H](O)[C@H](O)CO.Cc1c(Nc2ncccc2C(=O)O)cccc1C(F)(F)F,328.15,ethanol,CCO,0.05015,0.8694006556028759,-0.06078003664966305,Flunixin meglumine,42461-84-7,39212,No,10.1016/j.fluid.2015.06.026
CC(=O)Nc1ccc(O)cc1,284.49,ethanol,CCO,0.0444,0.80390937858475,-0.09479290473257347,Paracetamol,103-90-2,1983,Yes,10.1016/j.fluid.2015.07.032
CC(=O)Nc1ccc(O)cc1,288.38,ethanol,CCO,0.0471,0.8515650465742473,-0.06978217296347705,Paracetamol,103-90-2,1983,Yes,10.1016/j.fluid.2015.07.032
CC(=O)Nc1ccc(O)cc1,293.54,ethanol,CCO,0.0508,0.9168028554861748,-0.037724042715300415,Paracetamol,103-90-2,1983,Yes,10.1016/j.fluid.2015.07.032
CC(=O)Nc1ccc(O)cc1,295.69,ethanol,CCO,0.0539,0.9736134739116303,-0.011613424501717973,Paracetamol,103-90-2,1983,Yes,10.1016/j.fluid.2015.07.032
CC(=O)Oc1ccccc1C(=O)O,274.95,ethanol,CCO,0.0246,0.440931476312509,-0.3556288975426973,Aspirin,50-78-2,2244,Yes,10.1016/j.fluid.2015.07.032
CC(=O)Oc1ccccc1C(=O)O,292.45,ethanol,CCO,0.0487,0.8780217631565196,-0.056494719285642724,Aspirin,50-78-2,2244,Yes,10.1016/j.fluid.2015.07.032
CN=C(NC#N)NCCSCc1nc[nH]c1C,297.26,ethanol,CCO,0.005,0.08572832436189741,-1.0668756648711142,Cimetidine,51481-61-9,2756,No,10.1016/j.fluid.2015.07.032
CN=C(NC#N)NCCSCc1nc[nH]c1C,306.76,ethanol,CCO,0.0081,0.13784242328088234,-0.8606171005610113,Cimetidine,51481-61-9,2756,No,10.1016/j.fluid.2015.07.032
CN=C(NC#N)NCCSCc1nc[nH]c1C,309.1,ethanol,CCO,0.0091,0.1546086750367257,-0.8107661416280354,Cimetidine,51481-61-9,2756,No,10.1016/j.fluid.2015.07.032
CN=C(NC#N)NCCSCc1nc[nH]c1C,311.34,ethanol,CCO,0.0101,0.17133847866789084,-0.7661450935637667,Cimetidine,51481-61-9,2756,No,10.1016/j.fluid.2015.07.032
COc1ccc2nc(SCc3ncc(C)c(OC)c3C)[nH]c2c1,277.65,ethanol,CCO,0.0029,0.05069953493584181,-1.2949960244087544,Omeprazole sulfide,73590-85-9,155794,No,10.1016/j.fluid.2015.07.038
COc1ccc2nc(SCc3ncc(C)c(OC)c3C)[nH]c2c1,282.65,ethanol,CCO,0.00371,0.06456000576063056,-1.1900364395342828,Omeprazole sulfide,73590-85-9,155794,No,10.1016/j.fluid.2015.07.038
COc1ccc2nc(SCc3ncc(C)c(OC)c3C)[nH]c2c1,288.15,ethanol,CCO,0.00483,0.08357541162456703,-1.077921475748402,Omeprazole sulfide,73590-85-9,155794,No,10.1016/j.fluid.2015.07.038
COc1ccc2nc(SCc3ncc(C)c(OC)c3C)[nH]c2c1,293.15,ethanol,CCO,0.00614,0.1058800193141608,-0.9751859881486201,Omeprazole sulfide,73590-85-9,155794,No,10.1016/j.fluid.2015.07.038
COc1ccc2nc(SCc3ncc(C)c(OC)c3C)[nH]c2c1,298.05,ethanol,CCO,0.00773,0.13278389725263057,-0.8768545888110049,Omeprazole sulfide,73590-85-9,155794,No,10.1016/j.fluid.2015.07.038
COc1ccc2nc(SCc3ncc(C)c(OC)c3C)[nH]c2c1,302.15,ethanol,CCO,0.00935,0.1601404754786365,-0.7954988863481347,Omeprazole sulfide,73590-85-9,155794,No,10.1016/j.fluid.2015.07.038
COc1ccc2nc(SCc3ncc(C)c(OC)c3C)[nH]c2c1,307.65,ethanol,CCO,0.01204,0.2055030817744313,-0.6871816609529025,Omeprazole sulfide,73590-85-9,155794,No,10.1016/j.fluid.2015.07.038
COc1ccc2nc(SCc3ncc(C)c(OC)c3C)[nH]c2c1,313.15,ethanol,CCO,0.01545,0.2630225426257502,-0.5800070282462807,Omeprazole sulfide,73590-85-9,155794,No,10.1016/j.fluid.2015.07.038
COc1ccc2nc(SCc3ncc(C)c(OC)c3C)[nH]c2c1,317.65,ethanol,CCO,0.0189,0.3211936496851987,-0.49323304973812515,Omeprazole sulfide,73590-85-9,155794,No,10.1016/j.fluid.2015.07.038
COc1ccc2nc(SCc3ncc(C)c(OC)c3C)[nH]c2c1,322.15,ethanol,CCO,0.02306,0.3915442177374954,-0.40721918524074263,Omeprazole sulfide,73590-85-9,155794,No,10.1016/j.fluid.2015.07.038
COc1ccc2nc(SCc3ncc(C)c(OC)c3C)[nH]c2c1,327.65,ethanol,CCO,0.02933,0.49806941653351156,-0.3027101248777677,Omeprazole sulfide,73590-85-9,155794,No,10.1016/j.fluid.2015.07.038
COc1ccc2nc(SCc3ncc(C)c(OC)c3C)[nH]c2c1,333.15,ethanol,CCO,0.03718,0.6323494961541817,-0.19904282314434052,Omeprazole sulfide,73590-85-9,155794,No,10.1016/j.fluid.2015.07.038