SMILES_Solute,Temperature_K,Solvent,SMILES_Solvent,Solubility(mole_fraction),Solubility(mol/L),LogS(mol/L),Compound_Name,CAS,PubChem_CID,FDA_Approved,Source
COc1ccc2cccc(CCNC(C)=O)c2c1,288.15,ethanol,CCO,0.0235,0.41440432907930114,-0.3825757163771285,Agomelatine,138112-76-2,82148,Yes,10.1016/j.jct.2023.107209
COc1ccc2cccc(CCNC(C)=O)c2c1,293.15,ethanol,CCO,0.0319,0.5647305932636683,-0.24815868450377548,Agomelatine,138112-76-2,82148,Yes,10.1016/j.jct.2023.107209
COc1ccc2cccc(CCNC(C)=O)c2c1,298.15,ethanol,CCO,0.0425,0.7567437582416249,-0.12105115249547146,Agomelatine,138112-76-2,82148,Yes,10.1016/j.jct.2023.107209
COc1ccc2cccc(CCNC(C)=O)c2c1,303.15,ethanol,CCO,0.0542,0.9713743120184158,-0.012613385623291503,Agomelatine,138112-76-2,82148,Yes,10.1016/j.jct.2023.107209
COc1ccc2cccc(CCNC(C)=O)c2c1,308.15,ethanol,CCO,0.0819,1.503386533550498,0.17707065577378336,Agomelatine,138112-76-2,82148,Yes,10.1016/j.jct.2023.107209
COc1ccc2cccc(CCNC(C)=O)c2c1,313.15,ethanol,CCO,0.109,2.050458851971559,0.3118510584120914,Agomelatine,138112-76-2,82148,Yes,10.1016/j.jct.2023.107209
COc1ccc2cccc(CCNC(C)=O)c2c1,318.15,ethanol,CCO,0.144,2.803129722320217,0.4476431963632977,Agomelatine,138112-76-2,82148,Yes,10.1016/j.jct.2023.107209
Clc1cccnc1Cl,278.15,ethanol,CCO,0.03141,0.5649842002965478,-0.24796369699466353,"2,3-dichloropyridine",2402-77-9,16988,No,10.1016/j.jct.2023.107229
Clc1cccnc1Cl,283.15,ethanol,CCO,0.041760000000000005,0.7545057507207649,-0.12233744575349761,"2,3-dichloropyridine",2402-77-9,16988,No,10.1016/j.jct.2023.107229
Clc1cccnc1Cl,288.15,ethanol,CCO,0.05575,1.016685306903983,0.007186547195644032,"2,3-dichloropyridine",2402-77-9,16988,No,10.1016/j.jct.2023.107229
Clc1cccnc1Cl,293.15,ethanol,CCO,0.07096,1.3090313462598808,0.11695004635571966,"2,3-dichloropyridine",2402-77-9,16988,No,10.1016/j.jct.2023.107229
Clc1cccnc1Cl,298.15,ethanol,CCO,0.0902,1.6902825390499605,0.2279593051428827,"2,3-dichloropyridine",2402-77-9,16988,No,10.1016/j.jct.2023.107229
Clc1cccnc1Cl,303.15,ethanol,CCO,0.1145,2.1918133037842886,0.3408035586675423,"2,3-dichloropyridine",2402-77-9,16988,No,10.1016/j.jct.2023.107229
Clc1cccnc1Cl,308.15,ethanol,CCO,0.14547000000000002,2.8689492515064625,0.45772286613179947,"2,3-dichloropyridine",2402-77-9,16988,No,10.1016/j.jct.2023.107229
Clc1cccnc1Cl,313.15,ethanol,CCO,0.18849,3.8931102524609984,0.5902967030650447,"2,3-dichloropyridine",2402-77-9,16988,No,10.1016/j.jct.2023.107229
Cl.N=C(N)Nc1ccc(C(=O)O)cc1,294.95,ethanol,CCO,0.00291,0.04991717903252022,-1.3017499658982952,4-guanidinobenzoic acid hydrochloride,42823-46-1,3084875,No,10.1016/j.jct.2023.107230
Cl.N=C(N)Nc1ccc(C(=O)O)cc1,300.05,ethanol,CCO,0.00316,0.05391253376224321,-1.2683102568728626,4-guanidinobenzoic acid hydrochloride,42823-46-1,3084875,No,10.1016/j.jct.2023.107230
Cl.N=C(N)Nc1ccc(C(=O)O)cc1,305.95,ethanol,CCO,0.0034300000000000003,0.05814966268711584,-1.2354528001711158,4-guanidinobenzoic acid hydrochloride,42823-46-1,3084875,No,10.1016/j.jct.2023.107230
Cl.N=C(N)Nc1ccc(C(=O)O)cc1,310.25,ethanol,CCO,0.00387,0.0653212022678939,-1.1849458304646567,4-guanidinobenzoic acid hydrochloride,42823-46-1,3084875,No,10.1016/j.jct.2023.107230
Cl.N=C(N)Nc1ccc(C(=O)O)cc1,315.25,ethanol,CCO,0.0042,0.07051471234092116,-1.1517202614217463,4-guanidinobenzoic acid hydrochloride,42823-46-1,3084875,No,10.1016/j.jct.2023.107230
Cl.N=C(N)Nc1ccc(C(=O)O)cc1,320.25,ethanol,CCO,0.0047799999999999995,0.07984371614590627,-1.0977592579919435,4-guanidinobenzoic acid hydrochloride,42823-46-1,3084875,No,10.1016/j.jct.2023.107230
Cl.N=C(N)Nc1ccc(C(=O)O)cc1,325.55,ethanol,CCO,0.0051400000000000005,0.08536872312574359,-1.0687012143448817,4-guanidinobenzoic acid hydrochloride,42823-46-1,3084875,No,10.1016/j.jct.2023.107230
Cl.N=C(N)Nc1ccc(C(=O)O)cc1,330.65,ethanol,CCO,0.005580000000000001,0.0921747382335569,-1.0353880870701855,4-guanidinobenzoic acid hydrochloride,42823-46-1,3084875,No,10.1016/j.jct.2023.107230
O=C(O)c1cccc(C(=O)O)c1,283.15,ethanol,CCO,0.0032841999999999997,0.05704723688576769,-1.2437653860279743,Isophthalic acid,121-91-5,8496,No,10.1016/j.jct.2024.107276
O=C(O)c1cccc(C(=O)O)c1,288.15,ethanol,CCO,0.0036913999999999996,0.06380076670616781,-1.1951741022465932,Isophthalic acid,121-91-5,8496,No,10.1016/j.jct.2024.107276
O=C(O)c1cccc(C(=O)O)c1,293.15,ethanol,CCO,0.0040649,0.06995031588110982,-1.1552103199839736,Isophthalic acid,121-91-5,8496,No,10.1016/j.jct.2024.107276
O=C(O)c1cccc(C(=O)O)c1,298.15,ethanol,CCO,0.004510500000000001,0.0772479038676426,-1.1121132963829612,Isophthalic acid,121-91-5,8496,No,10.1016/j.jct.2024.107276
O=C(O)c1cccc(C(=O)O)c1,303.15,ethanol,CCO,0.0049977,0.0851398215915189,-1.069867264211737,Isophthalic acid,121-91-5,8496,No,10.1016/j.jct.2024.107276
O=C(O)c1cccc(C(=O)O)c1,308.15,ethanol,CCO,0.0055896999999999995,0.0947326371392498,-1.0235003727646628,Isophthalic acid,121-91-5,8496,No,10.1016/j.jct.2024.107276
O=C(O)c1cccc(C(=O)O)c1,313.15,ethanol,CCO,0.0061608,0.10390184328017872,-0.9833767477333974,Isophthalic acid,121-91-5,8496,No,10.1016/j.jct.2024.107276
O=C(O)c1cccc(C(=O)O)c1,318.15,ethanol,CCO,0.0068159,0.11435309428627768,-0.9417520793014456,Isophthalic acid,121-91-5,8496,No,10.1016/j.jct.2024.107276
O=C(O)c1cccc(C(=O)O)c1,323.15,ethanol,CCO,0.0075209000000000005,0.12553881376063325,-0.9012219793944461,Isophthalic acid,121-91-5,8496,No,10.1016/j.jct.2024.107276
N#CN=C(N)N,283.15,ethanol,CCO,0.007856,0.13708916287357187,-0.8629968755549878,Dicyandiamide,461-58-5,10005,No,10.1016/j.jct.2024.107312
N#CN=C(N)N,288.15,ethanol,CCO,0.008612999999999999,0.14960286011204119,-0.8250601035370422,Dicyandiamide,461-58-5,10005,No,10.1016/j.jct.2024.107312
N#CN=C(N)N,293.15,ethanol,CCO,0.009361000000000001,0.16194877835038357,-0.7906223237123923,Dicyandiamide,461-58-5,10005,No,10.1016/j.jct.2024.107312
N#CN=C(N)N,298.15,ethanol,CCO,0.01018,0.17534373503195474,-0.756109746689568,Dicyandiamide,461-58-5,10005,No,10.1016/j.jct.2024.107312
N#CN=C(N)N,303.15,ethanol,CCO,0.01088,0.18645178673973486,-0.7294334505033206,Dicyandiamide,461-58-5,10005,No,10.1016/j.jct.2024.107312
N#CN=C(N)N,308.15,ethanol,CCO,0.01247,0.21281042401389186,-0.6720071029708039,Dicyandiamide,461-58-5,10005,No,10.1016/j.jct.2024.107312
N#CN=C(N)N,313.15,ethanol,CCO,0.01418,0.24109092910100474,-0.6178191293798593,Dicyandiamide,461-58-5,10005,No,10.1016/j.jct.2024.107312
N#CN=C(N)N,318.15,ethanol,CCO,0.01702,0.28851562835607825,-0.5398306569450791,Dicyandiamide,461-58-5,10005,No,10.1016/j.jct.2024.107312
N#CN=C(N)N,323.15,ethanol,CCO,0.02062,0.3487923943815065,-0.4574329936768433,Dicyandiamide,461-58-5,10005,No,10.1016/j.jct.2024.107312
CC(=O)C1C(=O)C=C(C)OC1=O,288.25,ethanol,CCO,0.00512,0.08867591166778199,-1.0521943378968792,Dehydroacetic acid,520-45-6,122903,No,10.1016/j.jct.2024.107343
CC(=O)C1C(=O)C=C(C)OC1=O,291.95,ethanol,CCO,0.006520000000000001,0.11262177463940876,-0.948377633538872,Dehydroacetic acid,520-45-6,122903,No,10.1016/j.jct.2024.107343
CC(=O)C1C(=O)C=C(C)OC1=O,296.25,ethanol,CCO,0.00812,0.1398175636187688,-0.8544382699093672,Dehydroacetic acid,520-45-6,122903,No,10.1016/j.jct.2024.107343
CC(=O)C1C(=O)C=C(C)OC1=O,300.35,ethanol,CCO,0.00941,0.16150220851829364,-0.791821534380866,Dehydroacetic acid,520-45-6,122903,No,10.1016/j.jct.2024.107343
CC(=O)C1C(=O)C=C(C)OC1=O,303.65,ethanol,CCO,0.01091,0.18683998080554037,-0.7285301860002276,Dehydroacetic acid,520-45-6,122903,No,10.1016/j.jct.2024.107343
CC(=O)C1C(=O)C=C(C)OC1=O,308.55,ethanol,CCO,0.01345,0.22966484078987293,-0.6389054855175589,Dehydroacetic acid,520-45-6,122903,No,10.1016/j.jct.2024.107343
CC(=O)C1C(=O)C=C(C)OC1=O,312.65,ethanol,CCO,0.01762,0.30075174530178483,-0.5217918437130218,Dehydroacetic acid,520-45-6,122903,No,10.1016/j.jct.2024.107343
CC(=O)C1C(=O)C=C(C)OC1=O,316.15,ethanol,CCO,0.02167,0.3699409716882903,-0.43186756705509943,Dehydroacetic acid,520-45-6,122903,No,10.1016/j.jct.2024.107343
CCC(C)n1ncn(-c2ccc(N3CCN(c4ccc(OCC5COC(Cn6cncn6)(c6ccc(Cl)cc6Cl)O5)cc4)CC3)cc2)c1=O,283.15,ethanol,CCO,6.8819999999999995e-06,0.00011914999188457656,-3.9239059828977494,Itraconazole,84625-61-6,3793,Yes,10.1016/j.jct.2024.107349
CCC(C)n1ncn(-c2ccc(N3CCN(c4ccc(OCC5COC(Cn6cncn6)(c6ccc(Cl)cc6Cl)O5)cc4)CC3)cc2)c1=O,288.15,ethanol,CCO,9.343e-06,0.000160886304220021,-3.7934809245450416,Itraconazole,84625-61-6,3793,Yes,10.1016/j.jct.2024.107349
CCC(C)n1ncn(-c2ccc(N3CCN(c4ccc(OCC5COC(Cn6cncn6)(c6ccc(Cl)cc6Cl)O5)cc4)CC3)cc2)c1=O,293.15,ethanol,CCO,1.257e-05,0.00021543268259213258,-3.666688410635483,Itraconazole,84625-61-6,3793,Yes,10.1016/j.jct.2024.107349
CCC(C)n1ncn(-c2ccc(N3CCN(c4ccc(OCC5COC(Cn6cncn6)(c6ccc(Cl)cc6Cl)O5)cc4)CC3)cc2)c1=O,298.15,ethanol,CCO,1.662e-05,0.0002833589519750015,-3.547663062422759,Itraconazole,84625-61-6,3793,Yes,10.1016/j.jct.2024.107349
CCC(C)n1ncn(-c2ccc(N3CCN(c4ccc(OCC5COC(Cn6cncn6)(c6ccc(Cl)cc6Cl)O5)cc4)CC3)cc2)c1=O,303.15,ethanol,CCO,2.1589999999999998e-05,0.00036597267158592993,-3.436551343628956,Itraconazole,84625-61-6,3793,Yes,10.1016/j.jct.2024.107349
CCC(C)n1ncn(-c2ccc(N3CCN(c4ccc(OCC5COC(Cn6cncn6)(c6ccc(Cl)cc6Cl)O5)cc4)CC3)cc2)c1=O,308.15,ethanol,CCO,2.827e-05,0.00047644725327029906,-3.321985172426775,Itraconazole,84625-61-6,3793,Yes,10.1016/j.jct.2024.107349
CCC(C)n1ncn(-c2ccc(N3CCN(c4ccc(OCC5COC(Cn6cncn6)(c6ccc(Cl)cc6Cl)O5)cc4)CC3)cc2)c1=O,313.15,ethanol,CCO,3.7340000000000005e-05,0.0006258824803377116,-3.203507205019873,Itraconazole,84625-61-6,3793,Yes,10.1016/j.jct.2024.107349
CCC(C)n1ncn(-c2ccc(N3CCN(c4ccc(OCC5COC(Cn6cncn6)(c6ccc(Cl)cc6Cl)O5)cc4)CC3)cc2)c1=O,318.15,ethanol,CCO,5.032e-05,0.000838526815564104,-3.0764830443693993,Itraconazole,84625-61-6,3793,Yes,10.1016/j.jct.2024.107349
CCC(C)n1ncn(-c2ccc(N3CCN(c4ccc(OCC5COC(Cn6cncn6)(c6ccc(Cl)cc6Cl)O5)cc4)CC3)cc2)c1=O,323.15,ethanol,CCO,6.361e-05,0.0010538592172780882,-2.977217401687939,Itraconazole,84625-61-6,3793,Yes,10.1016/j.jct.2024.107349
O=C(O)/C=C/c1ccc(Cl)cc1,283.15,ethanol,CCO,0.00136,0.023577964575311538,-1.6274936891419056,trans-4-chlorocinnamic acid,1615-02-7,637797,No,10.1016/j.jct.2024.107350
O=C(O)/C=C/c1ccc(Cl)cc1,288.15,ethanol,CCO,0.001655,0.028546049851121764,-1.5444539801169355,trans-4-chlorocinnamic acid,1615-02-7,637797,No,10.1016/j.jct.2024.107350
O=C(O)/C=C/c1ccc(Cl)cc1,293.15,ethanol,CCO,0.00184,0.03159282875798509,-1.5004114865043923,trans-4-chlorocinnamic acid,1615-02-7,637797,No,10.1016/j.jct.2024.107350
O=C(O)/C=C/c1ccc(Cl)cc1,298.15,ethanol,CCO,0.0020670000000000003,0.035313258410624354,-1.4520622075441045,trans-4-chlorocinnamic acid,1615-02-7,637797,No,10.1016/j.jct.2024.107350
O=C(O)/C=C/c1ccc(Cl)cc1,303.15,ethanol,CCO,0.002382,0.04047288082092201,-1.3928358818426365,trans-4-chlorocinnamic acid,1615-02-7,637797,No,10.1016/j.jct.2024.107350
O=C(O)/C=C/c1ccc(Cl)cc1,308.15,ethanol,CCO,0.0026520000000000003,0.044812950611108494,-1.3485964599714666,trans-4-chlorocinnamic acid,1615-02-7,637797,No,10.1016/j.jct.2024.107350
O=C(O)/C=C/c1ccc(Cl)cc1,313.15,ethanol,CCO,0.00317,0.05330162223080292,-1.273259573052886,trans-4-chlorocinnamic acid,1615-02-7,637797,No,10.1016/j.jct.2024.107350
O=C(O)/C=C/c1ccc(Cl)cc1,318.15,ethanol,CCO,0.0036320000000000002,0.06074080422354949,-1.2165194622113404,trans-4-chlorocinnamic acid,1615-02-7,637797,No,10.1016/j.jct.2024.107350
O=C(O)/C=C/c1ccc(Cl)cc1,323.15,ethanol,CCO,0.003996,0.06646514757435319,-1.1774060266359279,trans-4-chlorocinnamic acid,1615-02-7,637797,No,10.1016/j.jct.2024.107350
CCOc1ccc2ccccc2c1C(=O)O,278.15,ethanol,CCO,0.0268,0.4797787861438625,-0.3189589586698542,2-ethoxy-1-naphthoic acid,2224-00-2,75210,No,10.1016/j.jct.2024.107365
CCOc1ccc2ccccc2c1C(=O)O,283.15,ethanol,CCO,0.032549999999999996,0.5825038819383965,-0.23470117605506435,2-ethoxy-1-naphthoic acid,2224-00-2,75210,No,10.1016/j.jct.2024.107365
CCOc1ccc2ccccc2c1C(=O)O,288.15,ethanol,CCO,0.039169999999999996,0.7019976946855289,-0.15366431406249925,2-ethoxy-1-naphthoic acid,2224-00-2,75210,No,10.1016/j.jct.2024.107365
CCOc1ccc2ccccc2c1C(=O)O,293.15,ethanol,CCO,0.04692,0.8437222455652149,-0.07380050014151274,2-ethoxy-1-naphthoic acid,2224-00-2,75210,No,10.1016/j.jct.2024.107365
CCOc1ccc2ccccc2c1C(=O)O,298.15,ethanol,CCO,0.05651,1.0211433323626178,0.009086705931395404,2-ethoxy-1-naphthoic acid,2224-00-2,75210,No,10.1016/j.jct.2024.107365
CCOc1ccc2ccccc2c1C(=O)O,303.15,ethanol,CCO,0.06875,1.2513910779584927,0.09739305426368007,2-ethoxy-1-naphthoic acid,2224-00-2,75210,No,10.1016/j.jct.2024.107365
CCOc1ccc2ccccc2c1C(=O)O,308.15,ethanol,CCO,0.08362,1.537840529536174,0.18691130247890775,2-ethoxy-1-naphthoic acid,2224-00-2,75210,No,10.1016/j.jct.2024.107365
CCOc1ccc2ccccc2c1C(=O)O,313.15,ethanol,CCO,0.1007,1.876839528569525,0.2734271416485008,2-ethoxy-1-naphthoic acid,2224-00-2,75210,No,10.1016/j.jct.2024.107365
CCOc1ccc2ccccc2c1C(=O)O,318.15,ethanol,CCO,0.11900000000000001,2.2507409985056954,0.352325521925684,2-ethoxy-1-naphthoic acid,2224-00-2,75210,No,10.1016/j.jct.2024.107365
CCOc1ccc2ccccc2c1C(=O)O,323.15,ethanol,CCO,0.1364,2.6165637059041793,0.4177313130431364,2-ethoxy-1-naphthoic acid,2224-00-2,75210,No,10.1016/j.jct.2024.107365
OCC1(O)OC[C@@H](O)[C@H](O)[C@@H]1O,283.15,ethanol,CCO,0.00138,0.023925178503699053,-1.6211448133052546,D-tagatose,41847-61-4,439312,No,10.1016/j.jct.2024.107407
OCC1(O)OC[C@@H](O)[C@H](O)[C@@H]1O,288.15,ethanol,CCO,0.0016799999999999999,0.0289779847139439,-1.5379318210058708,D-tagatose,41847-61-4,439312,No,10.1016/j.jct.2024.107407
OCC1(O)OC[C@@H](O)[C@H](O)[C@@H]1O,293.15,ethanol,CCO,0.0019299999999999999,0.033141118363564426,-1.479632840185553,D-tagatose,41847-61-4,439312,No,10.1016/j.jct.2024.107407
OCC1(O)OC[C@@H](O)[C@H](O)[C@@H]1O,298.15,ethanol,CCO,0.00219,0.037419240023906924,-1.4269050371667207,D-tagatose,41847-61-4,439312,No,10.1016/j.jct.2024.107407
OCC1(O)OC[C@@H](O)[C@H](O)[C@@H]1O,303.15,ethanol,CCO,0.0024500000000000004,0.04163111559764585,-1.3805819510779125,D-tagatose,41847-61-4,439312,No,10.1016/j.jct.2024.107407
OCC1(O)OC[C@@H](O)[C@H](O)[C@@H]1O,308.15,ethanol,CCO,0.0028799999999999997,0.04867677553826095,-1.3126781981560458,D-tagatose,41847-61-4,439312,No,10.1016/j.jct.2024.107407
OCC1(O)OC[C@@H](O)[C@H](O)[C@@H]1O,313.15,ethanol,CCO,0.00328,0.0551572919332276,-1.2583970646014626,D-tagatose,41847-61-4,439312,No,10.1016/j.jct.2024.107407
OCC1(O)OC[C@@H](O)[C@H](O)[C@@H]1O,318.15,ethanol,CCO,0.00395,0.06608005940903455,-1.1799295752366408,D-tagatose,41847-61-4,439312,No,10.1016/j.jct.2024.107407
OCC1(O)OC[C@@H](O)[C@H](O)[C@@H]1O,323.15,ethanol,CCO,0.00468,0.07789555905243739,-1.1084873014288261,D-tagatose,41847-61-4,439312,No,10.1016/j.jct.2024.107407
N#Cc1ccc(C(c2ccc(C#N)cc2)n2cncn2)cc1,283.15,ethanol,CCO,0.000456,0.00789840294809068,-2.102460713892927,Letrozole,112809-51-5,3902,Yes,10.1016/j.jct.2024.107409
N#Cc1ccc(C(c2ccc(C#N)cc2)n2cncn2)cc1,288.15,ethanol,CCO,0.0005865,0.010105352650537728,-1.9954485261357922,Letrozole,112809-51-5,3902,Yes,10.1016/j.jct.2024.107409
N#Cc1ccc(C(c2ccc(C#N)cc2)n2cncn2)cc1,293.15,ethanol,CCO,0.000748,0.012829136448898912,-1.891802575745095,Letrozole,112809-51-5,3902,Yes,10.1016/j.jct.2024.107409
N#Cc1ccc(C(c2ccc(C#N)cc2)n2cncn2)cc1,298.15,ethanol,CCO,0.0009463000000000001,0.016148742428866967,-1.7918612923711987,Letrozole,112809-51-5,3902,Yes,10.1016/j.jct.2024.107409
N#Cc1ccc(C(c2ccc(C#N)cc2)n2cncn2)cc1,303.15,ethanol,CCO,0.001188,0.020161336894739017,-1.6954806732801992,Letrozole,112809-51-5,3902,Yes,10.1016/j.jct.2024.107409
N#Cc1ccc(C(c2ccc(C#N)cc2)n2cncn2)cc1,308.15,ethanol,CCO,0.00148,0.02497938195354539,-1.602418311257534,Letrozole,112809-51-5,3902,Yes,10.1016/j.jct.2024.107409
N#Cc1ccc(C(c2ccc(C#N)cc2)n2cncn2)cc1,313.15,ethanol,CCO,0.001831,0.030745851900171345,-1.5122134691043583,Letrozole,112809-51-5,3902,Yes,10.1016/j.jct.2024.107409
N#Cc1ccc(C(c2ccc(C#N)cc2)n2cncn2)cc1,318.15,ethanol,CCO,0.00225,0.03757640695167416,-1.4250847493994971,Letrozole,112809-51-5,3902,Yes,10.1016/j.jct.2024.107409
N#Cc1ccc(C(c2ccc(C#N)cc2)n2cncn2)cc1,323.15,ethanol,CCO,0.002748,0.04565006379700772,-1.3405586111927916,Letrozole,112809-51-5,3902,Yes,10.1016/j.jct.2024.107409
NC(N)=O,293.15,ethanol,CCO,0.0395,0.704807600856823,-0.15192942100864135,Urea,57-13-6,1176,Yes,10.1016/j.jct.2024.107427
NC(N)=O,303.15,ethanol,CCO,0.0548,0.9827509742764095,-0.00755651695823318,Urea,57-13-6,1176,Yes,10.1016/j.jct.2024.107427
NC(N)=O,318.15,ethanol,CCO,0.0874,1.5958256347672224,0.20298543714296224,Urea,57-13-6,1176,Yes,10.1016/j.jct.2024.107427
NC(N)=O,333.15,ethanol,CCO,0.1269,2.3800743736073815,0.37659052829290557,Urea,57-13-6,1176,Yes,10.1016/j.jct.2024.107427
NC(N)=O,343.15,ethanol,CCO,0.1555,2.9810143154258415,0.47436406160643857,Urea,57-13-6,1176,Yes,10.1016/j.jct.2024.107427
Cc1ncc([N+](=O)[O-])n1CCO,293.15,ethanol,CCO,0.004327,0.07448023141946922,-1.1279589826169079,Metronidazole,443-48-1,4173,Yes,10.1016/j.jct.2024.107430
Cc1ncc([N+](=O)[O-])n1CCO,297.55,ethanol,CCO,0.005956,0.10218483268236439,-0.9906135618450564,Metronidazole,443-48-1,4173,Yes,10.1016/j.jct.2024.107430
Cc1ncc([N+](=O)[O-])n1CCO,302.55,ethanol,CCO,0.006405999999999999,0.10934362668114952,-0.961206525638442,Metronidazole,443-48-1,4173,Yes,10.1016/j.jct.2024.107430
Cc1ncc([N+](=O)[O-])n1CCO,307.55,ethanol,CCO,0.007627,0.12961607574753561,-0.8873411313706784,Metronidazole,443-48-1,4173,Yes,10.1016/j.jct.2024.107430
Cc1ncc([N+](=O)[O-])n1CCO,312.35,ethanol,CCO,0.009778,0.1656328915271097,-0.7808534164019475,Metronidazole,443-48-1,4173,Yes,10.1016/j.jct.2024.107430
Cc1ncc([N+](=O)[O-])n1CCO,317.85,ethanol,CCO,0.012100999999999999,0.2041871051526977,-0.6899716879976671,Metronidazole,443-48-1,4173,Yes,10.1016/j.jct.2024.107430
Cc1ncc([N+](=O)[O-])n1CCO,322.35,ethanol,CCO,0.014459999999999999,0.2433235294862389,-0.6138158925819553,Metronidazole,443-48-1,4173,Yes,10.1016/j.jct.2024.107430
CCC(C)n1ncn(-c2ccc(N3CCN(c4ccc(OCC5COC(Cn6cncn6)(c6ccc(Cl)cc6Cl)O5)cc4)CC3)cc2)c1=O,298.15,ethanol,CCO,1.91e-05,0.0003256419618005856,-3.487259637553572,Itraconazole,84625-61-6,3793,Yes,10.1016/j.jct.2025.107455
Cc1cccc(N(C)C(=S)Oc2ccc3ccccc3c2)c1,283.15,ethanol,CCO,0.000558,0.009666137371761477,-2.0147470371120932,Tolnaftate,2398-96-1,5510,Yes,10.1016/j.jct.2025.107468
Cc1cccc(N(C)C(=S)Oc2ccc3ccccc3c2)c1,288.15,ethanol,CCO,0.0007650000000000001,0.013183249352547988,-1.8799775334478759,Tolnaftate,2398-96-1,5510,Yes,10.1016/j.jct.2025.107468
Cc1cccc(N(C)C(=S)Oc2ccc3ccccc3c2)c1,293.15,ethanol,CCO,0.0009570000000000001,0.016417181863199803,-1.7847013908403078,Tolnaftate,2398-96-1,5510,Yes,10.1016/j.jct.2025.107468
Cc1cccc(N(C)C(=S)Oc2ccc3ccccc3c2)c1,298.15,ethanol,CCO,0.00125,0.02133791205231115,-1.670848079219114,Tolnaftate,2398-96-1,5510,Yes,10.1016/j.jct.2025.107468
Cc1cccc(N(C)C(=S)Oc2ccc3ccccc3c2)c1,303.15,ethanol,CCO,0.00161,0.027334572816003114,-1.563287708862319,Tolnaftate,2398-96-1,5510,Yes,10.1016/j.jct.2025.107468
Cc1cccc(N(C)C(=S)Oc2ccc3ccccc3c2)c1,308.15,ethanol,CCO,0.00196,0.03309671309670882,-1.4802151347693797,Tolnaftate,2398-96-1,5510,Yes,10.1016/j.jct.2025.107468
Cc1cccc(N(C)C(=S)Oc2ccc3ccccc3c2)c1,313.15,ethanol,CCO,0.0024100000000000002,0.040491812768101834,-1.3926327799724938,Tolnaftate,2398-96-1,5510,Yes,10.1016/j.jct.2025.107468
Cc1cccc(N(C)C(=S)Oc2ccc3ccccc3c2)c1,318.15,ethanol,CCO,0.0028699999999999997,0.04796059727124153,-1.3191154171080255,Tolnaftate,2398-96-1,5510,Yes,10.1016/j.jct.2025.107468
Cc1cccc(N(C)C(=S)Oc2ccc3ccccc3c2)c1,323.15,ethanol,CCO,0.00365,0.060689074652752355,-1.2168894842967668,Tolnaftate,2398-96-1,5510,Yes,10.1016/j.jct.2025.107468
Cc1cccc(N(C)C(=S)Oc2ccc3ccccc3c2)c1,328.15,ethanol,CCO,0.00448,0.07410236649832876,-1.1301679223748629,Tolnaftate,2398-96-1,5510,Yes,10.1016/j.jct.2025.107468
O=C(O)c1cccc([N+](=O)[O-])c1,298.2,ethanol,CCO,0.175,3.614992318178121,0.5581073787601768,3-nitrobenzoic acid,121-92-6,8497,No,10.1016/j.molliq.2004.06.001
c1ccc(-c2cnc(-c3ccc(-c4ncc(-c5ccccc5)o4)cc3)o2)cc1,298.15,ethanol,CCO,8.429999999999999e-06,0.0001437242118772915,-3.8424700641624665,"1,4-bis(5-phenyl-oxazolyl-2)benzene (POPOP)",1806-34-4,15732,No,10.1016/j.molliq.2008.07.011