SMILES_Solute,Temperature_K,Solvent,SMILES_Solvent,Solubility(mole_fraction),Solubility(mol/L),LogS(mol/L),Compound_Name,CAS,PubChem_CID,FDA_Approved,Source
CC(C)C1=CC2=CC[C@@H]3[C@](C)(CCC[C@@]3(C)C(=O)O)[C@H]2CC1,316.85,ethanol,CCO,0.04387,0.7657097658671441,-0.11593581387619999,Abietic acid,514-10-3,10569,No,10.1016/j.jct.2013.07.015
CC(C)C1=CC2=CC[C@@H]3[C@](C)(CCC[C@@]3(C)C(=O)O)[C@H]2CC1,319.03,ethanol,CCO,0.04672,0.8158652284553894,-0.0883815757708464,Abietic acid,514-10-3,10569,No,10.1016/j.jct.2013.07.015
CC(=O)[O-].C[N+](C)(C)CCO,259.8,ethanol,CCO,0.049,0.9156187009775565,-0.03828534569559693,Choline acetate,14586-35-7,11643980,No,10.1016/j.jct.2013.07.025
CC(=O)[O-].C[N+](C)(C)CCO,261.8,ethanol,CCO,0.067,1.2733979260607895,0.10496413820797973,Choline acetate,14586-35-7,11643980,No,10.1016/j.jct.2013.07.025
CC(=O)[O-].C[N+](C)(C)CCO,263.9,ethanol,CCO,0.09,1.7498283133835904,0.2429954394246355,Choline acetate,14586-35-7,11643980,No,10.1016/j.jct.2013.07.025
CC(=O)[O-].C[N+](C)(C)CCO,265.7,ethanol,CCO,0.112,2.227206538965893,0.34776049299900075,Choline acetate,14586-35-7,11643980,No,10.1016/j.jct.2013.07.025
CC(=O)[O-].C[N+](C)(C)CCO,267.1,ethanol,CCO,0.13,2.6346683032393496,0.4207259466299996,Choline acetate,14586-35-7,11643980,No,10.1016/j.jct.2013.07.025
CC(=O)[O-].C[N+](C)(C)CCO,267.8,ethanol,CCO,0.143,2.939881996474278,0.4683298986745463,Choline acetate,14586-35-7,11643980,No,10.1016/j.jct.2013.07.025
CC(=O)[O-].C[N+](C)(C)CCO,271.7,ethanol,CCO,0.174,3.6958691660373244,0.5677165887727045,Choline acetate,14586-35-7,11643980,No,10.1016/j.jct.2013.07.025
CC(=O)[O-].C[N+](C)(C)CCO,272.1,ethanol,CCO,0.184,3.9544601345063595,0.5970872017127123,Choline acetate,14586-35-7,11643980,No,10.1016/j.jct.2013.07.025
CC(=O)[O-].C[N+](C)(C)CCO,276.6,ethanol,CCO,0.228,5.15416300947164,0.7121581497590312,Choline acetate,14586-35-7,11643980,No,10.1016/j.jct.2013.07.025
CC(=O)[O-].C[N+](C)(C)CCO,278.5,ethanol,CCO,0.252,5.867346971812618,0.7684417714425056,Choline acetate,14586-35-7,11643980,No,10.1016/j.jct.2013.07.025
CC(=O)[O-].C[N+](C)(C)CCO,282.8,ethanol,CCO,0.29,7.080171752116379,0.8500437930134512,Choline acetate,14586-35-7,11643980,No,10.1016/j.jct.2013.07.025
CC(=O)[O-].C[N+](C)(C)CCO,286.1,ethanol,CCO,0.3192,8.097974243907917,0.9083763911349809,Choline acetate,14586-35-7,11643980,No,10.1016/j.jct.2013.07.025
C[N+](C)(C)CCO.[Cl-],269.8,ethanol,CCO,0.017,0.3040422743798339,-0.5170660273995892,Choline chloride,67-48-1,6209,Yes,10.1016/j.jct.2013.07.025
C[N+](C)(C)CCO.[Cl-],276.4,ethanol,CCO,0.027,0.4843796864085259,-0.31481407829874075,Choline chloride,67-48-1,6209,Yes,10.1016/j.jct.2013.07.025
C[N+](C)(C)CCO.[Cl-],281.8,ethanol,CCO,0.038,0.6854687112278087,-0.16401236414395567,Choline chloride,67-48-1,6209,Yes,10.1016/j.jct.2013.07.025
C[N+](C)(C)CCO.[Cl-],287.2,ethanol,CCO,0.054,0.9847153714027691,-0.006689282692592589,Choline chloride,67-48-1,6209,Yes,10.1016/j.jct.2013.07.025
C[N+](C)(C)CCO.[Cl-],290.5,ethanol,CCO,0.066,1.214580907937912,0.08442645014206868,Choline chloride,67-48-1,6209,Yes,10.1016/j.jct.2013.07.025
C[N+](C)(C)CCO.[Cl-],292.4,ethanol,CCO,0.072,1.3307680048487596,0.12410235074452311,Choline chloride,67-48-1,6209,Yes,10.1016/j.jct.2013.07.025
C[N+](C)(C)CCO.[Cl-],296.7,ethanol,CCO,0.082,1.5248211402759964,0.18321890443903538,Choline chloride,67-48-1,6209,Yes,10.1016/j.jct.2013.07.025
C[N+](C)(C)CCO.[Cl-],300.5,ethanol,CCO,0.089,1.6606638252914268,0.22028172540898058,Choline chloride,67-48-1,6209,Yes,10.1016/j.jct.2013.07.025
C[N+](C)(C)CCO.[Cl-],305.7,ethanol,CCO,0.098,1.8361252578580223,0.2639023048287354,Choline chloride,67-48-1,6209,Yes,10.1016/j.jct.2013.07.025
C[N+](C)(C)CCO.[Cl-],308.4,ethanol,CCO,0.109,2.0611683717178897,0.31411346966436204,Choline chloride,67-48-1,6209,Yes,10.1016/j.jct.2013.07.025
C[N+](C)(C)CCO.[Cl-],315.3,ethanol,CCO,0.125,2.38825058749662,0.3780798932518793,Choline chloride,67-48-1,6209,Yes,10.1016/j.jct.2013.07.025
C[N+](C)(C)CCO.[Cl-],321.6,ethanol,CCO,0.138,2.6572613712652307,0.4244342742128537,Choline chloride,67-48-1,6209,Yes,10.1016/j.jct.2013.07.025
C[N+](C)(C)CCOC(=O)CCC(=O)O.[Cl-],299.0,ethanol,CCO,0.008,0.13731396980205074,-0.8622852770435342,Hydrogen choline chloride succinate,5297-17-6,199935,No,10.1016/j.jct.2013.07.025
C[N+](C)(C)CCOC(=O)CCC(=O)O.[Cl-],300.8,ethanol,CCO,0.01,0.17164434226098077,-0.7653705072124898,Hydrogen choline chloride succinate,5297-17-6,199935,No,10.1016/j.jct.2013.07.025
C[N+](C)(C)CCOC(=O)CCC(=O)O.[Cl-],305.5,ethanol,CCO,0.015,0.25741584301443265,-0.5893647273539147,Hydrogen choline chloride succinate,5297-17-6,199935,No,10.1016/j.jct.2013.07.025
C[N+](C)(C)CCOC(=O)CCC(=O)O.[Cl-],310.9,ethanol,CCO,0.02,0.3428819029203298,-0.4648554360552054,Hydrogen choline chloride succinate,5297-17-6,199935,No,10.1016/j.jct.2013.07.025
C[N+](C)(C)CCOC(=O)CCC(=O)O.[Cl-],313.1,ethanol,CCO,0.026,0.4473784143967581,-0.34932497404924306,Hydrogen choline chloride succinate,5297-17-6,199935,No,10.1016/j.jct.2013.07.025
C[N+](C)(C)CCOC(=O)CCC(=O)O.[Cl-],315.6,ethanol,CCO,0.028,0.4814174733351755,-0.3174781507969057,Hydrogen choline chloride succinate,5297-17-6,199935,No,10.1016/j.jct.2013.07.025
C[N+](C)(C)CCOC(=O)CCC(=O)O.[Cl-],320.5,ethanol,CCO,0.038,0.6564725390747421,-0.1827834361818821,Hydrogen choline chloride succinate,5297-17-6,199935,No,10.1016/j.jct.2013.07.025
C[N+](C)(C)CCOC(=O)CCC(=O)O.[Cl-],322.0,ethanol,CCO,0.044,0.7635872585747189,-0.11714132697409885,Hydrogen choline chloride succinate,5297-17-6,199935,No,10.1016/j.jct.2013.07.025
C[N+](C)(C)CCOC(=O)CCCC(=O)O.[Cl-],300.2,ethanol,CCO,0.006,0.10264086926182794,-0.9886796785932154,Hydrogen choline chloride glutarate,1616366-52-9,154705120,No,10.1016/j.jct.2013.07.025
C[N+](C)(C)CCOC(=O)CCCC(=O)O.[Cl-],310.6,ethanol,CCO,0.008,0.13553954547069103,-0.8679339750919041,Hydrogen choline chloride glutarate,1616366-52-9,154705120,No,10.1016/j.jct.2013.07.025
C[N+](C)(C)CCOC(=O)CCCC(=O)O.[Cl-],316.8,ethanol,CCO,0.01,0.16857880945584522,-0.7731970175806738,Hydrogen choline chloride glutarate,1616366-52-9,154705120,No,10.1016/j.jct.2013.07.025
C[N+](C)(C)CCOC(=O)CCCC(=O)O.[Cl-],318.5,ethanol,CCO,0.012,0.2023124278898946,-0.6939774380486631,Hydrogen choline chloride glutarate,1616366-52-9,154705120,No,10.1016/j.jct.2013.07.025
C[N+](C)(C)CCOC(=O)CCCC(=O)O.[Cl-],322.1,ethanol,CCO,0.017,0.2868861860985803,-0.5422903630317795,Hydrogen choline chloride glutarate,1616366-52-9,154705120,No,10.1016/j.jct.2013.07.025
C[N+](C)(C)CCOC(=O)CCCC(=O)O.[Cl-],325.4,ethanol,CCO,0.023,0.3890502373079981,-0.409994315443073,Hydrogen choline chloride glutarate,1616366-52-9,154705120,No,10.1016/j.jct.2013.07.025
C[N+](C)(C)CCOC(=O)CCCC(=O)O.[Cl-],333.2,ethanol,CCO,0.033,0.5589260573174861,-0.25264564295986397,Hydrogen choline chloride glutarate,1616366-52-9,154705120,No,10.1016/j.jct.2013.07.025
C[N+](C)(C)CCOC(=O)CCCC(=O)O.[Cl-],335.8,ethanol,CCO,0.039,0.662671703426922,-0.1787015737093651,Hydrogen choline chloride glutarate,1616366-52-9,154705120,No,10.1016/j.jct.2013.07.025
C[N+](C)(C)CCOC(=O)CCCC(=O)O.[Cl-],338.1,ethanol,CCO,0.043,0.7317316772159342,-0.13564814362412048,Hydrogen choline chloride glutarate,1616366-52-9,154705120,No,10.1016/j.jct.2013.07.025
C[N+](C)(C)CCOC(=O)CCCC(=O)O.[Cl-],339.4,ethanol,CCO,0.055,0.9463856223142637,-0.02393186622142864,Hydrogen choline chloride glutarate,1616366-52-9,154705120,No,10.1016/j.jct.2013.07.025
O=C(O)CCCCCCCCCCC(=O)O,288.15,ethanol,CCO,0.0083,0.14412072829897862,-0.8412735518823278,Dodecanedioic acid,693-23-2,12736,No,10.1016/j.jct.2013.09.012
O=C(O)CCCCCCCCCCC(=O)O,293.15,ethanol,CCO,0.0107,0.18536452437705908,-0.7319733788295891,Dodecanedioic acid,693-23-2,12736,No,10.1016/j.jct.2013.09.012
O=C(O)CCCCCCCCCCC(=O)O,298.15,ethanol,CCO,0.0145,0.2508476713161348,-0.6005899262856097,Dodecanedioic acid,693-23-2,12736,No,10.1016/j.jct.2013.09.012
O=C(O)CCCCCCCCCCC(=O)O,303.15,ethanol,CCO,0.0194,0.33534858527680816,-0.4745035214622043,Dodecanedioic acid,693-23-2,12736,No,10.1016/j.jct.2013.09.012
O=C(O)CCCCCCCCCCC(=O)O,308.15,ethanol,CCO,0.025,0.4321277281402312,-0.364387865621343,Dodecanedioic acid,693-23-2,12736,No,10.1016/j.jct.2013.09.012
O=C(O)CCCCCCCCCCC(=O)O,313.15,ethanol,CCO,0.0317,0.5487210171262137,-0.2606484051271672,Dodecanedioic acid,693-23-2,12736,No,10.1016/j.jct.2013.09.012
O=C(O)CCCCCCCCCCC(=O)O,318.15,ethanol,CCO,0.0408,0.7087702203086566,-0.14949453805571106,Dodecanedioic acid,693-23-2,12736,No,10.1016/j.jct.2013.09.012
O=C(O)CCCCCCCCCCC(=O)O,323.15,ethanol,CCO,0.0516,0.9013381070821288,-0.04511226729406964,Dodecanedioic acid,693-23-2,12736,No,10.1016/j.jct.2013.09.012
CS(=O)(=O)[O-].c1ccc2sc[nH+]c2c1,253.15,ethanol,CCO,0.0023,0.041257104304607425,-1.3845012569412003,Benzothiazolium methanesulfonate,,89964055,No,10.1016/j.jct.2013.12.031
CS(=O)(=O)[O-].c1ccc2sc[nH+]c2c1,263.35,ethanol,CCO,0.0030299999999999997,0.05380354163791374,-1.2691891357986986,Benzothiazolium methanesulfonate,,89964055,No,10.1016/j.jct.2013.12.031
CS(=O)(=O)[O-].c1ccc2sc[nH+]c2c1,268.15,ethanol,CCO,0.00369,0.0652293251695024,-1.1855571144512564,Benzothiazolium methanesulfonate,,89964055,No,10.1016/j.jct.2013.12.031
CS(=O)(=O)[O-].c1ccc2sc[nH+]c2c1,273.25,ethanol,CCO,0.00441,0.07758487742539938,-1.1102229216636088,Benzothiazolium methanesulfonate,,89964055,No,10.1016/j.jct.2013.12.031
CS(=O)(=O)[O-].c1ccc2sc[nH+]c2c1,278.15,ethanol,CCO,0.00522,0.09142222890820607,-1.0389481946553696,Benzothiazolium methanesulfonate,,89964055,No,10.1016/j.jct.2013.12.031
CS(=O)(=O)[O-].c1ccc2sc[nH+]c2c1,283.05,ethanol,CCO,0.00628,0.10951684747495577,-0.9605190661883124,Benzothiazolium methanesulfonate,,89964055,No,10.1016/j.jct.2013.12.031
CS(=O)(=O)[O-].c1ccc2sc[nH+]c2c1,293.85,ethanol,CCO,0.00982,0.1698314878255618,-0.7699817856992758,Benzothiazolium methanesulfonate,,89964055,No,10.1016/j.jct.2013.12.031
CS(=O)(=O)[O-].c1ccc2sc[nH+]c2c1,303.65,ethanol,CCO,0.0143,0.24573790721467423,-0.6095278446419395,Benzothiazolium methanesulfonate,,89964055,No,10.1016/j.jct.2013.12.031
CS(=O)(=O)[O-].c1ccc2sc[nH+]c2c1,313.75,ethanol,CCO,0.0223,0.38197969221969286,-0.41795972554736677,Benzothiazolium methanesulfonate,,89964055,No,10.1016/j.jct.2013.12.031
CS(=O)(=O)[O-].c1ccc2sc[nH+]c2c1,323.25,ethanol,CCO,0.0353,0.606212957308521,-0.2173747851781438,Benzothiazolium methanesulfonate,,89964055,No,10.1016/j.jct.2013.12.031
CS(=O)(=O)[O-].c1ccc2sc[nH+]c2c1,333.55,ethanol,CCO,0.053899999999999997,0.9327012099918423,-0.03025745982721825,Benzothiazolium methanesulfonate,,89964055,No,10.1016/j.jct.2013.12.031
CS(=O)(=O)[O-].c1ccc2sc[nH+]c2c1,343.25,ethanol,CCO,0.0853,1.5095683729176845,0.17885278831531842,Benzothiazolium methanesulfonate,,89964055,No,10.1016/j.jct.2013.12.031
Cc1ccc(S(=O)(=O)[O-])cc1.c1ccc2sc[nH+]c2c1,253.15,ethanol,CCO,0.00272,0.04881155842326023,-1.3114773262541974,Benzothiazolium p-toluenesulfonate,,19708553,No,10.1016/j.jct.2013.12.031
Cc1ccc(S(=O)(=O)[O-])cc1.c1ccc2sc[nH+]c2c1,263.35,ethanol,CCO,0.00359,0.06378325770215919,-1.1952933031247215,Benzothiazolium p-toluenesulfonate,,19708553,No,10.1016/j.jct.2013.12.031
Cc1ccc(S(=O)(=O)[O-])cc1.c1ccc2sc[nH+]c2c1,268.15,ethanol,CCO,0.00434,0.0767696708007552,-1.1148103217055398,Benzothiazolium p-toluenesulfonate,,19708553,No,10.1016/j.jct.2013.12.031
Cc1ccc(S(=O)(=O)[O-])cc1.c1ccc2sc[nH+]c2c1,273.25,ethanol,CCO,0.00497,0.08748613460059493,-1.0580607714760089,Benzothiazolium p-toluenesulfonate,,19708553,No,10.1016/j.jct.2013.12.031
Cc1ccc(S(=O)(=O)[O-])cc1.c1ccc2sc[nH+]c2c1,278.15,ethanol,CCO,0.00636,0.11151579813788517,-0.9526636029468317,Benzothiazolium p-toluenesulfonate,,19708553,No,10.1016/j.jct.2013.12.031
Cc1ccc(S(=O)(=O)[O-])cc1.c1ccc2sc[nH+]c2c1,283.05,ethanol,CCO,0.00786,0.13728873627417082,-0.8623650925858108,Benzothiazolium p-toluenesulfonate,,19708553,No,10.1016/j.jct.2013.12.031
Cc1ccc(S(=O)(=O)[O-])cc1.c1ccc2sc[nH+]c2c1,293.85,ethanol,CCO,0.0116,0.20097689350594505,-0.6968538709362767,Benzothiazolium p-toluenesulfonate,,19708553,No,10.1016/j.jct.2013.12.031
Cc1ccc(S(=O)(=O)[O-])cc1.c1ccc2sc[nH+]c2c1,303.65,ethanol,CCO,0.0202,0.3492165429692651,-0.4569051912262271,Benzothiazolium p-toluenesulfonate,,19708553,No,10.1016/j.jct.2013.12.031
Cc1ccc(S(=O)(=O)[O-])cc1.c1ccc2sc[nH+]c2c1,313.75,ethanol,CCO,0.0308,0.5322042491038962,-0.2739216623757452,Benzothiazolium p-toluenesulfonate,,19708553,No,10.1016/j.jct.2013.12.031
Cc1ccc(S(=O)(=O)[O-])cc1.c1ccc2sc[nH+]c2c1,323.25,ethanol,CCO,0.0601,1.0593405831831115,0.025035610359671195,Benzothiazolium p-toluenesulfonate,,19708553,No,10.1016/j.jct.2013.12.031
Cc1ccc(S(=O)(=O)[O-])cc1.c1ccc2sc[nH+]c2c1,333.55,ethanol,CCO,0.111,2.044146583157877,0.3105120352855975,Benzothiazolium p-toluenesulfonate,,19708553,No,10.1016/j.jct.2013.12.031
Cc1ccc(S(=O)(=O)[O-])cc1.c1ccc2sc[nH+]c2c1,343.25,ethanol,CCO,0.171,3.339058408922668,0.5236240160747189,Benzothiazolium p-toluenesulfonate,,19708553,No,10.1016/j.jct.2013.12.031
F[B-](F)(F)F.c1ccc2sc[nH+]c2c1,253.15,ethanol,CCO,0.00408,0.07331732114680238,-1.1347934115823732,Benzothiazolium tetrafluoroborate,,87788030,No,10.1016/j.jct.2013.12.031
F[B-](F)(F)F.c1ccc2sc[nH+]c2c1,263.35,ethanol,CCO,0.005059999999999999,0.09003346223911451,-1.0455960487288494,Benzothiazolium tetrafluoroborate,,87788030,No,10.1016/j.jct.2013.12.031
F[B-](F)(F)F.c1ccc2sc[nH+]c2c1,268.15,ethanol,CCO,0.00583,0.10328063745365154,-0.9859810902444538,Benzothiazolium tetrafluoroborate,,87788030,No,10.1016/j.jct.2013.12.031
F[B-](F)(F)F.c1ccc2sc[nH+]c2c1,273.25,ethanol,CCO,0.006679999999999999,0.11778942378502648,-0.9288937027408162,Benzothiazolium tetrafluoroborate,,87788030,No,10.1016/j.jct.2013.12.031
F[B-](F)(F)F.c1ccc2sc[nH+]c2c1,278.15,ethanol,CCO,0.0077,0.13519358399222875,-0.8690439186228527,Benzothiazolium tetrafluoroborate,,87788030,No,10.1016/j.jct.2013.12.031
F[B-](F)(F)F.c1ccc2sc[nH+]c2c1,283.05,ethanol,CCO,0.009269999999999999,0.16214730730736615,-0.7900902590246949,Benzothiazolium tetrafluoroborate,,87788030,No,10.1016/j.jct.2013.12.031
F[B-](F)(F)F.c1ccc2sc[nH+]c2c1,293.85,ethanol,CCO,0.013900000000000001,0.24138746729748137,-0.6172852819803452,Benzothiazolium tetrafluoroborate,,87788030,No,10.1016/j.jct.2013.12.031
F[B-](F)(F)F.c1ccc2sc[nH+]c2c1,303.65,ethanol,CCO,0.024399999999999998,0.42364190194972046,-0.3730010908555027,Benzothiazolium tetrafluoroborate,,87788030,No,10.1016/j.jct.2013.12.031
F[B-](F)(F)F.c1ccc2sc[nH+]c2c1,313.75,ethanol,CCO,0.040799999999999996,0.7123476888155256,-0.14730798041163318,Benzothiazolium tetrafluoroborate,,87788030,No,10.1016/j.jct.2013.12.031
F[B-](F)(F)F.c1ccc2sc[nH+]c2c1,323.25,ethanol,CCO,0.0689,1.2259300291555615,0.08846568321761285,Benzothiazolium tetrafluoroborate,,87788030,No,10.1016/j.jct.2013.12.031
F[B-](F)(F)F.c1ccc2sc[nH+]c2c1,333.55,ethanol,CCO,0.115,2.1273815435348458,0.32784538712494,Benzothiazolium tetrafluoroborate,,87788030,No,10.1016/j.jct.2013.12.031
F[B-](F)(F)F.c1ccc2sc[nH+]c2c1,343.25,ethanol,CCO,0.175,3.4337331112844653,0.5357665363692078,Benzothiazolium tetrafluoroborate,,87788030,No,10.1016/j.jct.2013.12.031
O=S(=O)([O-])C(F)(F)F.c1ccc2sc[nH+]c2c1,253.15,ethanol,CCO,0.0169,0.30765210275550076,-0.5119401122288375,Benzothiazolium trifluoromethanesulfonate,,89963931,No,10.1016/j.jct.2013.12.031
O=S(=O)([O-])C(F)(F)F.c1ccc2sc[nH+]c2c1,263.35,ethanol,CCO,0.0277,0.5043474264577641,-0.2972701909119591,Benzothiazolium trifluoromethanesulfonate,,89963931,No,10.1016/j.jct.2013.12.031
O=S(=O)([O-])C(F)(F)F.c1ccc2sc[nH+]c2c1,268.15,ethanol,CCO,0.0351,0.6406721104488144,-0.19336418117719342,Benzothiazolium trifluoromethanesulfonate,,89963931,No,10.1016/j.jct.2013.12.031
O=S(=O)([O-])C(F)(F)F.c1ccc2sc[nH+]c2c1,273.25,ethanol,CCO,0.0442,0.8099799298435615,-0.09152574219070926,Benzothiazolium trifluoromethanesulfonate,,89963931,No,10.1016/j.jct.2013.12.031
O=S(=O)([O-])C(F)(F)F.c1ccc2sc[nH+]c2c1,278.15,ethanol,CCO,0.053700000000000005,0.9886755477365347,-0.0049462068314323655,Benzothiazolium trifluoromethanesulfonate,,89963931,No,10.1016/j.jct.2013.12.031
O=S(=O)([O-])C(F)(F)F.c1ccc2sc[nH+]c2c1,283.05,ethanol,CCO,0.0688,1.2803561494328148,0.10733079169400155,Benzothiazolium trifluoromethanesulfonate,,89963931,No,10.1016/j.jct.2013.12.031
O=S(=O)([O-])C(F)(F)F.c1ccc2sc[nH+]c2c1,293.85,ethanol,CCO,0.102,1.9451124411729286,0.2889447116614598,Benzothiazolium trifluoromethanesulfonate,,89963931,No,10.1016/j.jct.2013.12.031
O=S(=O)([O-])C(F)(F)F.c1ccc2sc[nH+]c2c1,303.65,ethanol,CCO,0.154,3.083409685380125,0.48903123224490047,Benzothiazolium trifluoromethanesulfonate,,89963931,No,10.1016/j.jct.2013.12.031
O=S(=O)([O-])C(F)(F)F.c1ccc2sc[nH+]c2c1,313.75,ethanol,CCO,0.223,4.806454891675595,0.6818248708365257,Benzothiazolium trifluoromethanesulfonate,,89963931,No,10.1016/j.jct.2013.12.031
O=S(=O)([O-])C(F)(F)F.c1ccc2sc[nH+]c2c1,323.25,ethanol,CCO,0.322,7.868083600859082,0.8958689657870668,Benzothiazolium trifluoromethanesulfonate,,89963931,No,10.1016/j.jct.2013.12.031
O=S(=O)([O-])C(F)(F)F.c1ccc2sc[nH+]c2c1,333.55,ethanol,CCO,0.445,13.12676907767506,1.1181578453274092,Benzothiazolium trifluoromethanesulfonate,,89963931,No,10.1016/j.jct.2013.12.031
O=S(=O)([O-])C(F)(F)F.c1ccc2sc[nH+]c2c1,343.25,ethanol,CCO,0.624,26.864525922328916,1.4291791809876013,Benzothiazolium trifluoromethanesulfonate,,89963931,No,10.1016/j.jct.2013.12.031
CC(C)(C)C(=O)C(Oc1ccc(Cl)cc1)n1ccnc1,278.15,ethanol,CCO,0.0801,1.5170512225324655,0.18100024478649146,Climbazole,38083-17-9,37907,No,10.1016/j.jct.2014.04.011
CC(C)(C)C(=O)C(Oc1ccc(Cl)cc1)n1ccnc1,283.15,ethanol,CCO,0.0952,1.8216322922681671,0.2604607164595056,Climbazole,38083-17-9,37907,No,10.1016/j.jct.2014.04.011
CC(C)(C)C(=O)C(Oc1ccc(Cl)cc1)n1ccnc1,288.15,ethanol,CCO,0.1122,2.1762379790452226,0.33770638520580315,Climbazole,38083-17-9,37907,No,10.1016/j.jct.2014.04.011
CC(C)(C)C(=O)C(Oc1ccc(Cl)cc1)n1ccnc1,293.15,ethanol,CCO,0.1331,2.6313577976207507,0.42017990508583314,Climbazole,38083-17-9,37907,No,10.1016/j.jct.2014.04.011
CC(C)(C)C(=O)C(Oc1ccc(Cl)cc1)n1ccnc1,298.15,ethanol,CCO,0.1585,3.2112479966402407,0.506673846336805,Climbazole,38083-17-9,37907,No,10.1016/j.jct.2014.04.011
CC(C)(C)C(=O)C(Oc1ccc(Cl)cc1)n1ccnc1,303.15,ethanol,CCO,0.1844,3.8323956375179864,0.5834703371292372,Climbazole,38083-17-9,37907,No,10.1016/j.jct.2014.04.011
CC(C)(C)C(=O)C(Oc1ccc(Cl)cc1)n1ccnc1,308.15,ethanol,CCO,0.2151,4.618519937056422,0.664502822709318,Climbazole,38083-17-9,37907,No,10.1016/j.jct.2014.04.011
CC(C)(C)C(=O)C(Oc1ccc(Cl)cc1)n1ccnc1,313.15,ethanol,CCO,0.2492,5.5632174879758765,0.7453260385461657,Climbazole,38083-17-9,37907,No,10.1016/j.jct.2014.04.011
CC(C)(C)C(=O)C(Oc1ccc(Cl)cc1)n1ccnc1,318.15,ethanol,CCO,0.287,6.707286165087386,0.8265468358273278,Climbazole,38083-17-9,37907,No,10.1016/j.jct.2014.04.011
O=P([O-])([O-])OC[C@H]1O[C@@H](n2cnc3c(O)ncnc32)[C@H](O)[C@@H]1O.[Na+].[Na+],293.15,ethanol,CCO,0.000951,0.016314154844610455,-1.7874354199349043,Inosine-5-monophosphate disodium,4691-65-0,135414245,No,10.1016/j.jct.2014.04.023
O=P([O-])([O-])OC[C@H]1O[C@@H](n2cnc3c(O)ncnc32)[C@H](O)[C@@H]1O.[Na+].[Na+],298.15,ethanol,CCO,0.001112,0.0189795841010542,-1.7217133084838665,Inosine-5-monophosphate disodium,4691-65-0,135414245,No,10.1016/j.jct.2014.04.023
O=P([O-])([O-])OC[C@H]1O[C@@H](n2cnc3c(O)ncnc32)[C@H](O)[C@@H]1O.[Na+].[Na+],303.15,ethanol,CCO,0.001224,0.020773035216355554,-1.6825000426363852,Inosine-5-monophosphate disodium,4691-65-0,135414245,No,10.1016/j.jct.2014.04.023
O=P([O-])([O-])OC[C@H]1O[C@@H](n2cnc3c(O)ncnc32)[C@H](O)[C@@H]1O.[Na+].[Na+],308.15,ethanol,CCO,0.001482,0.02501318797562896,-1.6018309531319301,Inosine-5-monophosphate disodium,4691-65-0,135414245,No,10.1016/j.jct.2014.04.023
O=P([O-])([O-])OC[C@H]1O[C@@H](n2cnc3c(O)ncnc32)[C@H](O)[C@@H]1O.[Na+].[Na+],313.15,ethanol,CCO,0.00165,0.027701506395883358,-1.55749661354814,Inosine-5-monophosphate disodium,4691-65-0,135414245,No,10.1016/j.jct.2014.04.023
Cn1c(=O)c2[nH]cnc2n(C)c1=O,309.4,ethanol,CCO,0.0008,0.013474511784983042,-1.870486961423522,Theophylline,58-55-9,2153,Yes,10.1016/j.jct.2014.05.005