SMILES_Solute,Temperature_K,Solvent,SMILES_Solvent,Solubility(mole_fraction),Solubility(mol/L),LogS(mol/L),Compound_Name,CAS,PubChem_CID,FDA_Approved,Source
COCCOC(=O)C1=C(C)NC(C)=C(C(=O)OC(C)C)C1c1cccc([N+](=O)[O-])c1,283.15,ethanol,CCO,0.0158,0.27793938118382805,-0.5560499137512092,Nimodipine,66085-59-4,4497,Yes,10.1016/j.jct.2020.106259
COCCOC(=O)C1=C(C)NC(C)=C(C(=O)OC(C)C)C1c1cccc([N+](=O)[O-])c1,288.15,ethanol,CCO,0.01763,0.30903373435839293,-0.509994110070202,Nimodipine,66085-59-4,4497,Yes,10.1016/j.jct.2020.106259
COCCOC(=O)C1=C(C)NC(C)=C(C(=O)OC(C)C)C1c1cccc([N+](=O)[O-])c1,293.15,ethanol,CCO,0.01984,0.3469089825778869,-0.45978445474570795,Nimodipine,66085-59-4,4497,Yes,10.1016/j.jct.2020.106259
COCCOC(=O)C1=C(C)NC(C)=C(C(=O)OC(C)C)C1c1cccc([N+](=O)[O-])c1,298.15,ethanol,CCO,0.0221,0.3852977985770581,-0.4142034723484506,Nimodipine,66085-59-4,4497,Yes,10.1016/j.jct.2020.106259
COCCOC(=O)C1=C(C)NC(C)=C(C(=O)OC(C)C)C1c1cccc([N+](=O)[O-])c1,303.15,ethanol,CCO,0.02468,0.42892826212733204,-0.36761533711003413,Nimodipine,66085-59-4,4497,Yes,10.1016/j.jct.2020.106259
COCCOC(=O)C1=C(C)NC(C)=C(C(=O)OC(C)C)C1c1cccc([N+](=O)[O-])c1,308.15,ethanol,CCO,0.02722,0.47157440905354414,-0.3264497708127185,Nimodipine,66085-59-4,4497,Yes,10.1016/j.jct.2020.106259
COCCOC(=O)C1=C(C)NC(C)=C(C(=O)OC(C)C)C1c1cccc([N+](=O)[O-])c1,313.15,ethanol,CCO,0.03035,0.5246213469268168,-0.2801540418739471,Nimodipine,66085-59-4,4497,Yes,10.1016/j.jct.2020.106259
COCCOC(=O)C1=C(C)NC(C)=C(C(=O)OC(C)C)C1c1cccc([N+](=O)[O-])c1,318.15,ethanol,CCO,0.034,0.5864841229469145,-0.23174374042803697,Nimodipine,66085-59-4,4497,Yes,10.1016/j.jct.2020.106259
CC(=O)Nc1ccc(OC(=O)c2ccccc2OC(C)=O)cc1,278.15,ethanol,CCO,0.000242,0.004217244937132998,-2.374971174475747,Benorilate,5003-48-5,21102,Yes,10.1016/j.jct.2020.106272
CC(=O)Nc1ccc(OC(=O)c2ccccc2OC(C)=O)cc1,283.15,ethanol,CCO,0.000364,0.006304285252353944,-2.2003641443889763,Benorilate,5003-48-5,21102,Yes,10.1016/j.jct.2020.106272
CC(=O)Nc1ccc(OC(=O)c2ccccc2OC(C)=O)cc1,288.15,ethanol,CCO,0.000497,0.00856250731894309,-2.067399044279052,Benorilate,5003-48-5,21102,Yes,10.1016/j.jct.2020.106272
CC(=O)Nc1ccc(OC(=O)c2ccccc2OC(C)=O)cc1,293.15,ethanol,CCO,0.000601,0.010306386241280632,-1.9868935859857852,Benorilate,5003-48-5,21102,Yes,10.1016/j.jct.2020.106272
CC(=O)Nc1ccc(OC(=O)c2ccccc2OC(C)=O)cc1,298.15,ethanol,CCO,0.000717,0.012232898058171876,-1.9124706434074006,Benorilate,5003-48-5,21102,Yes,10.1016/j.jct.2020.106272
CC(=O)Nc1ccc(OC(=O)c2ccccc2OC(C)=O)cc1,303.15,ethanol,CCO,0.000987,0.01674683149521394,-1.77606734948159,Benorilate,5003-48-5,21102,Yes,10.1016/j.jct.2020.106272
CC(=O)Nc1ccc(OC(=O)c2ccccc2OC(C)=O)cc1,308.15,ethanol,CCO,0.001251,0.021109487697343114,-1.6755223063852247,Benorilate,5003-48-5,21102,Yes,10.1016/j.jct.2020.106272
CC(=O)Nc1ccc(OC(=O)c2ccccc2OC(C)=O)cc1,313.15,ethanol,CCO,0.001553,0.02607046058149077,-1.5838512961721785,Benorilate,5003-48-5,21102,Yes,10.1016/j.jct.2020.106272
CC(=O)Nc1ccc(OC(=O)c2ccccc2OC(C)=O)cc1,318.15,ethanol,CCO,0.002003,0.033443073432607245,-1.475693817552197,Benorilate,5003-48-5,21102,Yes,10.1016/j.jct.2020.106272
CC#CCn1c(N2CCC[C@@H](N)C2)nc2c1c(=O)n(Cc1nc(C)c3ccccc3n1)c(=O)n2C,273.15,ethanol,CCO,0.000511,0.008955893586671947,-2.0478910753203112,Linagliptin,668270-12-0,10096344,Yes,10.1016/j.jct.2020.106273
CC#CCn1c(N2CCC[C@@H](N)C2)nc2c1c(=O)n(Cc1nc(C)c3ccccc3n1)c(=O)n2C,278.15,ethanol,CCO,0.000637,0.011105152162827231,-1.9544754863704845,Linagliptin,668270-12-0,10096344,Yes,10.1016/j.jct.2020.106273
CC#CCn1c(N2CCC[C@@H](N)C2)nc2c1c(=O)n(Cc1nc(C)c3ccccc3n1)c(=O)n2C,283.15,ethanol,CCO,0.000782,0.013549487361623029,-1.8680771358028552,Linagliptin,668270-12-0,10096344,Yes,10.1016/j.jct.2020.106273
CC#CCn1c(N2CCC[C@@H](N)C2)nc2c1c(=O)n(Cc1nc(C)c3ccccc3n1)c(=O)n2C,288.15,ethanol,CCO,0.000947,0.01632262938094303,-1.7872098802847227,Linagliptin,668270-12-0,10096344,Yes,10.1016/j.jct.2020.106273
CC#CCn1c(N2CCC[C@@H](N)C2)nc2c1c(=O)n(Cc1nc(C)c3ccccc3n1)c(=O)n2C,293.15,ethanol,CCO,0.00113,0.01938832657368562,-1.712459673705049,Linagliptin,668270-12-0,10096344,Yes,10.1016/j.jct.2020.106273
CC#CCn1c(N2CCC[C@@H](N)C2)nc2c1c(=O)n(Cc1nc(C)c3ccccc3n1)c(=O)n2C,298.15,ethanol,CCO,0.001367,0.023337874569168013,-1.631938698629697,Linagliptin,668270-12-0,10096344,Yes,10.1016/j.jct.2020.106273
CC#CCn1c(N2CCC[C@@H](N)C2)nc2c1c(=O)n(Cc1nc(C)c3ccccc3n1)c(=O)n2C,303.15,ethanol,CCO,0.001631,0.027691693185621653,-1.5576504888665255,Linagliptin,668270-12-0,10096344,Yes,10.1016/j.jct.2020.106273
CC#CCn1c(N2CCC[C@@H](N)C2)nc2c1c(=O)n(Cc1nc(C)c3ccccc3n1)c(=O)n2C,308.15,ethanol,CCO,0.001943,0.03280909091893779,-1.4840058029683745,Linagliptin,668270-12-0,10096344,Yes,10.1016/j.jct.2020.106273
CC#CCn1c(N2CCC[C@@H](N)C2)nc2c1c(=O)n(Cc1nc(C)c3ccccc3n1)c(=O)n2C,313.15,ethanol,CCO,0.002314,0.038875119862819524,-1.4103282589122224,Linagliptin,668270-12-0,10096344,Yes,10.1016/j.jct.2020.106273
O=c1cc(CO)occ1O,278.15,ethanol,CCO,0.003095,0.054089781452691804,-1.2668847733015431,Kojic acid,501-30-4,3840,No,10.1016/j.jct.2020.106280
O=c1cc(CO)occ1O,283.15,ethanol,CCO,0.003741,0.06501174308617418,-1.1870081895587603,Kojic acid,501-30-4,3840,No,10.1016/j.jct.2020.106280
O=c1cc(CO)occ1O,288.15,ethanol,CCO,0.00459,0.07940344682167119,-1.1001606448885055,Kojic acid,501-30-4,3840,No,10.1016/j.jct.2020.106280
O=c1cc(CO)occ1O,293.15,ethanol,CCO,0.005954,0.10265336750478715,-0.9886267991939408,Kojic acid,501-30-4,3840,No,10.1016/j.jct.2020.106280
O=c1cc(CO)occ1O,298.15,ethanol,CCO,0.007385,0.1268435434932456,-0.896731634052175,Kojic acid,501-30-4,3840,No,10.1016/j.jct.2020.106280
O=c1cc(CO)occ1O,303.15,ethanol,CCO,0.008934,0.152802341178057,-0.8158699916181688,Kojic acid,501-30-4,3840,No,10.1016/j.jct.2020.106280
O=c1cc(CO)occ1O,308.15,ethanol,CCO,0.01076,0.18331050082565065,-0.7368126560415381,Kojic acid,501-30-4,3840,No,10.1016/j.jct.2020.106280
O=c1cc(CO)occ1O,313.15,ethanol,CCO,0.013,0.2207641066189506,-0.6560715358544575,Kojic acid,501-30-4,3840,No,10.1016/j.jct.2020.106280
O=c1cc(CO)occ1O,318.15,ethanol,CCO,0.01575,0.26664264186154973,-0.5740703963914466,Kojic acid,501-30-4,3840,No,10.1016/j.jct.2020.106280
O=c1cc(CO)occ1O,323.15,ethanol,CCO,0.01911,0.32275275378886575,-0.4911300435612891,Kojic acid,501-30-4,3840,No,10.1016/j.jct.2020.106280
Oc1ccc(Cl)c2cccnc12,278.15,ethanol,CCO,0.002531,0.044208022177375295,-1.3544989145595467,5-chloro-8-hydroxyquinoline,130-16-5,2817,No,10.1016/j.jct.2020.106315
Oc1ccc(Cl)c2cccnc12,283.15,ethanol,CCO,0.003045,0.05287959267213101,-1.2767118988500854,5-chloro-8-hydroxyquinoline,130-16-5,2817,No,10.1016/j.jct.2020.106315
Oc1ccc(Cl)c2cccnc12,288.15,ethanol,CCO,0.003759,0.06497354812029395,-1.187263416334678,5-chloro-8-hydroxyquinoline,130-16-5,2817,No,10.1016/j.jct.2020.106315
Oc1ccc(Cl)c2cccnc12,293.15,ethanol,CCO,0.004684,0.0806541564668154,-1.0933732465752286,5-chloro-8-hydroxyquinoline,130-16-5,2817,No,10.1016/j.jct.2020.106315
Oc1ccc(Cl)c2cccnc12,298.15,ethanol,CCO,0.0056430000000000004,0.09675343999312344,-1.0143335850328494,5-chloro-8-hydroxyquinoline,130-16-5,2817,No,10.1016/j.jct.2020.106315
Oc1ccc(Cl)c2cccnc12,303.15,ethanol,CCO,0.0069440000000000005,0.11852845130735298,-0.9261773900531626,5-chloro-8-hydroxyquinoline,130-16-5,2817,No,10.1016/j.jct.2020.106315
Oc1ccc(Cl)c2cccnc12,308.15,ethanol,CCO,0.008386,0.14252431087013206,-0.8461110502082192,5-chloro-8-hydroxyquinoline,130-16-5,2817,No,10.1016/j.jct.2020.106315
Oc1ccc(Cl)c2cccnc12,313.15,ethanol,CCO,0.010089999999999998,0.17084320858384203,-0.7674022807410462,5-chloro-8-hydroxyquinoline,130-16-5,2817,No,10.1016/j.jct.2020.106315
Oc1ccc(Cl)c2cccnc12,318.15,ethanol,CCO,0.012110000000000001,0.20426314897243777,-0.6898099771829768,5-chloro-8-hydroxyquinoline,130-16-5,2817,No,10.1016/j.jct.2020.106315
Oc1ccc(Cl)c2cccnc12,323.15,ethanol,CCO,0.014530000000000001,0.2442596794366864,-0.6121482171991675,5-chloro-8-hydroxyquinoline,130-16-5,2817,No,10.1016/j.jct.2020.106315
CCCCN(CCCC)CC(O)c1cc(Cl)cc2c1-c1ccc(Cl)cc1/C2=C/c1ccc(Cl)cc1,278.15,ethanol,CCO,5.32e-05,0.0009269217756982064,-3.032956915063776,Benflumetol,82186-77-4,6437380,Yes,10.1016/j.jct.2020.106323
CCCCN(CCCC)CC(O)c1cc(Cl)cc2c1-c1ccc(Cl)cc1/C2=C/c1ccc(Cl)cc1,283.15,ethanol,CCO,7.11e-05,0.0012310532532113592,-2.9097231598423634,Benflumetol,82186-77-4,6437380,Yes,10.1016/j.jct.2020.106323
CCCCN(CCCC)CC(O)c1cc(Cl)cc2c1-c1ccc(Cl)cc1/C2=C/c1ccc(Cl)cc1,288.15,ethanol,CCO,9.63e-05,0.0016584286076712501,-2.780303219327964,Benflumetol,82186-77-4,6437380,Yes,10.1016/j.jct.2020.106323
CCCCN(CCCC)CC(O)c1cc(Cl)cc2c1-c1ccc(Cl)cc1/C2=C/c1ccc(Cl)cc1,293.15,ethanol,CCO,0.0001273,0.0021819989909856075,-2.6611454545769546,Benflumetol,82186-77-4,6437380,Yes,10.1016/j.jct.2020.106323
CCCCN(CCCC)CC(O)c1cc(Cl)cc2c1-c1ccc(Cl)cc1/C2=C/c1ccc(Cl)cc1,298.15,ethanol,CCO,0.000158,0.0026941663715945754,-2.5695755890011247,Benflumetol,82186-77-4,6437380,Yes,10.1016/j.jct.2020.106323
CCCCN(CCCC)CC(O)c1cc(Cl)cc2c1-c1ccc(Cl)cc1/C2=C/c1ccc(Cl)cc1,303.15,ethanol,CCO,0.0002127,0.003606172620187581,-2.4429534883178268,Benflumetol,82186-77-4,6437380,Yes,10.1016/j.jct.2020.106323
CCCCN(CCCC)CC(O)c1cc(Cl)cc2c1-c1ccc(Cl)cc1/C2=C/c1ccc(Cl)cc1,308.15,ethanol,CCO,0.0002649,0.0044655376931244505,-2.350126240449007,Benflumetol,82186-77-4,6437380,Yes,10.1016/j.jct.2020.106323
CCCCN(CCCC)CC(O)c1cc(Cl)cc2c1-c1ccc(Cl)cc1/C2=C/c1ccc(Cl)cc1,313.15,ethanol,CCO,0.0003226,0.005408872616531855,-2.266893246435313,Benflumetol,82186-77-4,6437380,Yes,10.1016/j.jct.2020.106323
CCCCN(CCCC)CC(O)c1cc(Cl)cc2c1-c1ccc(Cl)cc1/C2=C/c1ccc(Cl)cc1,318.15,ethanol,CCO,0.0004008,0.006681227837202477,-2.1751437180752675,Benflumetol,82186-77-4,6437380,Yes,10.1016/j.jct.2020.106323
CCCCN(CCCC)CC(O)c1cc(Cl)cc2c1-c1ccc(Cl)cc1/C2=C/c1ccc(Cl)cc1,323.15,ethanol,CCO,0.0004972,0.008240938654548398,-2.0840233187308206,Benflumetol,82186-77-4,6437380,Yes,10.1016/j.jct.2020.106323
CS(=O)(=O)OCCCCOS(C)(=O)=O,278.15,ethanol,CCO,1.55e-05,0.0002700516140636638,-3.568553222652931,Busulfan,55-98-1,2478,Yes,10.1016/j.jct.2020.106328
CS(=O)(=O)OCCCCOS(C)(=O)=O,283.15,ethanol,CCO,2.49e-05,0.0004311084358742289,-3.3654134788445984,Busulfan,55-98-1,2478,Yes,10.1016/j.jct.2020.106328
CS(=O)(=O)OCCCCOS(C)(=O)=O,288.15,ethanol,CCO,3.95e-05,0.0006802098546792399,-3.167357080427683,Busulfan,55-98-1,2478,Yes,10.1016/j.jct.2020.106328
CS(=O)(=O)OCCCCOS(C)(=O)=O,293.15,ethanol,CCO,6.08e-05,0.0010420794647068236,-2.982099162257407,Busulfan,55-98-1,2478,Yes,10.1016/j.jct.2020.106328
CS(=O)(=O)OCCCCOS(C)(=O)=O,298.15,ethanol,CCO,9.34e-05,0.0015925245693577809,-2.797913858676005,Busulfan,55-98-1,2478,Yes,10.1016/j.jct.2020.106328
CS(=O)(=O)OCCCCOS(C)(=O)=O,303.15,ethanol,CCO,0.00014230000000000002,0.0024124223430294616,-2.617546657895717,Busulfan,55-98-1,2478,Yes,10.1016/j.jct.2020.106328
CS(=O)(=O)OCCCCOS(C)(=O)=O,308.15,ethanol,CCO,0.000211,0.003556729544799915,-2.448949157492497,Busulfan,55-98-1,2478,Yes,10.1016/j.jct.2020.106328
CS(=O)(=O)OCCCCOS(C)(=O)=O,313.15,ethanol,CCO,0.000315,0.0052814070715633,-2.277250357389297,Busulfan,55-98-1,2478,Yes,10.1016/j.jct.2020.106328
CS(=O)(=O)OCCCCOS(C)(=O)=O,318.15,ethanol,CCO,0.00046039999999999997,0.007675201378532252,-2.1149102208751427,Busulfan,55-98-1,2478,Yes,10.1016/j.jct.2020.106328
CS(=O)(=O)OCCCCOS(C)(=O)=O,323.15,ethanol,CCO,0.0006546999999999999,0.010853163435818592,-1.9644436569789114,Busulfan,55-98-1,2478,Yes,10.1016/j.jct.2020.106328
Cc1ccc(Nc2nccc(N(C)c3ccc4c(C)n(C)nc4c3)n2)cc1S(N)(=O)=O,288.15,ethanol,CCO,7.967e-06,0.00013719141838552327,-3.8626730538215037,Pazopanib,444731-52-6,10113978,Yes,10.1016/j.jct.2020.106343
Cc1ccc(Nc2nccc(N(C)c3ccc4c(C)n(C)nc4c3)n2)cc1S(N)(=O)=O,293.15,ethanol,CCO,1.014e-05,0.0001737853693815443,-3.759986788671698,Pazopanib,444731-52-6,10113978,Yes,10.1016/j.jct.2020.106343
Cc1ccc(Nc2nccc(N(C)c3ccc4c(C)n(C)nc4c3)n2)cc1S(N)(=O)=O,298.15,ethanol,CCO,1.269e-05,0.00021635445058909694,-3.6648341665784736,Pazopanib,444731-52-6,10113978,Yes,10.1016/j.jct.2020.106343
Cc1ccc(Nc2nccc(N(C)c3ccc4c(C)n(C)nc4c3)n2)cc1S(N)(=O)=O,303.15,ethanol,CCO,1.6080000000000002e-05,0.0002725710112602531,-3.5645203345584218,Pazopanib,444731-52-6,10113978,Yes,10.1016/j.jct.2020.106343
Cc1ccc(Nc2nccc(N(C)c3ccc4c(C)n(C)nc4c3)n2)cc1S(N)(=O)=O,308.15,ethanol,CCO,1.955e-05,0.0003294822276980707,-3.482168006322842,Pazopanib,444731-52-6,10113978,Yes,10.1016/j.jct.2020.106343
Cc1ccc(Nc2nccc(N(C)c3ccc4c(C)n(C)nc4c3)n2)cc1S(N)(=O)=O,313.15,ethanol,CCO,2.364e-05,0.00039624154062893255,-3.402039996439533,Pazopanib,444731-52-6,10113978,Yes,10.1016/j.jct.2020.106343
Cc1ccc(Nc2nccc(N(C)c3ccc4c(C)n(C)nc4c3)n2)cc1S(N)(=O)=O,318.15,ethanol,CCO,2.852e-05,0.0004752437087184208,-3.323083623619718,Pazopanib,444731-52-6,10113978,Yes,10.1016/j.jct.2020.106343
Cc1ccc(Nc2nccc(N(C)c3ccc4c(C)n(C)nc4c3)n2)cc1S(N)(=O)=O,323.15,ethanol,CCO,3.4070000000000004e-05,0.0005644383408790115,-3.248383493382192,Pazopanib,444731-52-6,10113978,Yes,10.1016/j.jct.2020.106343
Cc1ccc(Nc2nccc(N(C)c3ccc4c(C)n(C)nc4c3)n2)cc1S(N)(=O)=O,328.15,ethanol,CCO,4.0379999999999996e-05,0.0006649483379481024,-3.17721209517152,Pazopanib,444731-52-6,10113978,Yes,10.1016/j.jct.2020.106343
CCCNS(=O)(=O)Nc1ncnc(OCCOc2ncc(Br)cn2)c1-c1ccc(Br)cc1,273.15,ethanol,CCO,6.4e-05,0.0011211760527295,-2.950326186936103,Macitentan,441798-33-0,16004692,Yes,10.1016/j.jct.2020.106344
CCCNS(=O)(=O)Nc1ncnc(OCCOc2ncc(Br)cn2)c1-c1ccc(Br)cc1,278.15,ethanol,CCO,8.8e-05,0.0015333074270020169,-2.814370760693599,Macitentan,441798-33-0,16004692,Yes,10.1016/j.jct.2020.106344
CCCNS(=O)(=O)Nc1ncnc(OCCOc2ncc(Br)cn2)c1-c1ccc(Br)cc1,283.15,ethanol,CCO,0.00011700000000000001,0.002025876828756778,-2.693386962834265,Macitentan,441798-33-0,16004692,Yes,10.1016/j.jct.2020.106344
CCCNS(=O)(=O)Nc1ncnc(OCCOc2ncc(Br)cn2)c1-c1ccc(Br)cc1,288.15,ethanol,CCO,0.00015099999999999998,0.002600585876945571,-2.584928800313382,Macitentan,441798-33-0,16004692,Yes,10.1016/j.jct.2020.106344
CCCNS(=O)(=O)Nc1ncnc(OCCOc2ncc(Br)cn2)c1-c1ccc(Br)cc1,293.15,ethanol,CCO,0.000188,0.003222629340825441,-2.4917896431352973,Macitentan,441798-33-0,16004692,Yes,10.1016/j.jct.2020.106344
CCCNS(=O)(=O)Nc1ncnc(OCCOc2ncc(Br)cn2)c1-c1ccc(Br)cc1,298.15,ethanol,CCO,0.00023400000000000002,0.003990397817861786,-2.398983805694245,Macitentan,441798-33-0,16004692,Yes,10.1016/j.jct.2020.106344
CCCNS(=O)(=O)Nc1ncnc(OCCOc2ncc(Br)cn2)c1-c1ccc(Br)cc1,303.15,ethanol,CCO,0.00029299999999999997,0.00496799928655768,-2.3038184751994484,Macitentan,441798-33-0,16004692,Yes,10.1016/j.jct.2020.106344
CCCNS(=O)(=O)Nc1ncnc(OCCOc2ncc(Br)cn2)c1-c1ccc(Br)cc1,308.15,ethanol,CCO,0.000365,0.006153584268334132,-2.210871847715992,Macitentan,441798-33-0,16004692,Yes,10.1016/j.jct.2020.106344
CCCNS(=O)(=O)Nc1ncnc(OCCOc2ncc(Br)cn2)c1-c1ccc(Br)cc1,313.15,ethanol,CCO,0.000458,0.007680096818240458,-2.1146333050514903,Macitentan,441798-33-0,16004692,Yes,10.1016/j.jct.2020.106344
Nc1cccc2c1C(=O)N(C1CCC(=O)NC1=O)C2=O,278.15,ethanol,CCO,1.8e-07,3.136035215289968e-06,-5.503619069163542,Pomalidomide,19171-19-8,134780,Yes,10.1016/j.jct.2020.106345
Nc1cccc2c1C(=O)N(C1CCC(=O)NC1=O)C2=O,283.15,ethanol,CCO,2.4e-07,4.155159563736374e-06,-5.381412294065275,Pomalidomide,19171-19-8,134780,Yes,10.1016/j.jct.2020.106345
Nc1cccc2c1C(=O)N(C1CCC(=O)NC1=O)C2=O,288.15,ethanol,CCO,3.1e-07,5.338146611303775e-06,-5.272609502559408,Pomalidomide,19171-19-8,134780,Yes,10.1016/j.jct.2020.106345
Nc1cccc2c1C(=O)N(C1CCC(=O)NC1=O)C2=O,293.15,ethanol,CCO,4.1e-07,7.026756229208565e-06,-5.1532451126568795,Pomalidomide,19171-19-8,134780,Yes,10.1016/j.jct.2020.106345
Nc1cccc2c1C(=O)N(C1CCC(=O)NC1=O)C2=O,298.15,ethanol,CCO,5.3e-07,9.035970405856517e-06,-5.044025200128197,Pomalidomide,19171-19-8,134780,Yes,10.1016/j.jct.2020.106345
Nc1cccc2c1C(=O)N(C1CCC(=O)NC1=O)C2=O,303.15,ethanol,CCO,6.800000000000001e-07,1.1526457294241368e-05,-4.938304154455686,Pomalidomide,19171-19-8,134780,Yes,10.1016/j.jct.2020.106345
Nc1cccc2c1C(=O)N(C1CCC(=O)NC1=O)C2=O,308.15,ethanol,CCO,8.5e-07,1.4325046364138072e-05,-4.843903963730084,Pomalidomide,19171-19-8,134780,Yes,10.1016/j.jct.2020.106345
Nc1cccc2c1C(=O)N(C1CCC(=O)NC1=O)C2=O,313.15,ethanol,CCO,1.04e-06,1.743155198744641e-05,-4.758663944526381,Pomalidomide,19171-19-8,134780,Yes,10.1016/j.jct.2020.106345
Nc1cccc2c1C(=O)N(C1CCC(=O)NC1=O)C2=O,318.15,ethanol,CCO,1.26e-06,2.09954680744682e-05,-4.677874438725844,Pomalidomide,19171-19-8,134780,Yes,10.1016/j.jct.2020.106345
CCN(CC)CCCC(C)Nc1ccnc2cc(Cl)ccc12.O=P(O)(O)O.O=P(O)(O)O,273.15,ethanol,CCO,3.82e-06,6.691616837453379e-05,-4.174468934736507,Chloroquine diphosphate,50-63-5,64927,Yes,10.1016/j.jct.2020.106368
CCN(CC)CCCC(C)Nc1ccnc2cc(Cl)ccc12.O=P(O)(O)O.O=P(O)(O)O,278.15,ethanol,CCO,4.96e-06,8.641560566577077e-05,-4.063407821843692,Chloroquine diphosphate,50-63-5,64927,Yes,10.1016/j.jct.2020.106368
CCN(CC)CCCC(C)Nc1ccnc2cc(Cl)ccc12.O=P(O)(O)O.O=P(O)(O)O,283.15,ethanol,CCO,6.64e-06,0.0001149601503418451,-3.9394526769146188,Chloroquine diphosphate,50-63-5,64927,Yes,10.1016/j.jct.2020.106368
CCN(CC)CCCC(C)Nc1ccnc2cc(Cl)ccc12.O=P(O)(O)O.O=P(O)(O)O,288.15,ethanol,CCO,8.73e-06,0.0001503303622874685,-3.8229532959120456,Chloroquine diphosphate,50-63-5,64927,Yes,10.1016/j.jct.2020.106368
CCN(CC)CCCC(C)Nc1ccnc2cc(Cl)ccc12.O=P(O)(O)O.O=P(O)(O)O,293.15,ethanol,CCO,1.106e-05,0.0001895530526311961,-3.7222692171451772,Chloroquine diphosphate,50-63-5,64927,Yes,10.1016/j.jct.2020.106368
CCN(CC)CCCC(C)Nc1ccnc2cc(Cl)ccc12.O=P(O)(O)O.O=P(O)(O)O,298.15,ethanol,CCO,1.384e-05,0.00023596131124493269,-3.6271591991071603,Chloroquine diphosphate,50-63-5,64927,Yes,10.1016/j.jct.2020.106368
CCN(CC)CCCC(C)Nc1ccnc2cc(Cl)ccc12.O=P(O)(O)O.O=P(O)(O)O,303.15,ethanol,CCO,1.684e-05,0.0002854539376961592,-3.5444639617379843,Chloroquine diphosphate,50-63-5,64927,Yes,10.1016/j.jct.2020.106368
CCN(CC)CCCC(C)Nc1ccnc2cc(Cl)ccc12.O=P(O)(O)O.O=P(O)(O)O,308.15,ethanol,CCO,2.032e-05,0.00034245954077443894,-3.465390730029428,Chloroquine diphosphate,50-63-5,64927,Yes,10.1016/j.jct.2020.106368
CCN(CC)CCCC(C)Nc1ccnc2cc(Cl)ccc12.O=P(O)(O)O.O=P(O)(O)O,313.15,ethanol,CCO,2.426e-05,0.0004066339143718594,-3.3907964028491686,Chloroquine diphosphate,50-63-5,64927,Yes,10.1016/j.jct.2020.106368
CN1CCN(C2=Nc3cc(Cl)ccc3Nc3ccccc32)CC1,278.15,ethanol,CCO,0.004664,0.08163890614352073,-1.0881028229052014,Clozapine,5786-21-0,135398737,Yes,10.1016/j.jct.2021.106398
CN1CCN(C2=Nc3cc(Cl)ccc3Nc3ccccc32)CC1,283.15,ethanol,CCO,0.00535,0.09312362108432078,-1.0309401449540316,Clozapine,5786-21-0,135398737,Yes,10.1016/j.jct.2021.106398
CN1CCN(C2=Nc3cc(Cl)ccc3Nc3ccccc32)CC1,288.15,ethanol,CCO,0.005807,0.10057957449966679,-0.9974902059872894,Clozapine,5786-21-0,135398737,Yes,10.1016/j.jct.2021.106398
CN1CCN(C2=Nc3cc(Cl)ccc3Nc3ccccc32)CC1,293.15,ethanol,CCO,0.0064,0.11039241739505143,-0.957060756286007,Clozapine,5786-21-0,135398737,Yes,10.1016/j.jct.2021.106398
CN1CCN(C2=Nc3cc(Cl)ccc3Nc3ccccc32)CC1,298.15,ethanol,CCO,0.007203,0.1236948615172336,-0.9076483412848857,Clozapine,5786-21-0,135398737,Yes,10.1016/j.jct.2021.106398
CN1CCN(C2=Nc3cc(Cl)ccc3Nc3ccccc32)CC1,303.15,ethanol,CCO,0.008104,0.13849048333793135,-0.858580069024257,Clozapine,5786-21-0,135398737,Yes,10.1016/j.jct.2021.106398
CN1CCN(C2=Nc3cc(Cl)ccc3Nc3ccccc32)CC1,308.15,ethanol,CCO,0.009171,0.15598926999127838,-0.8069052743625106,Clozapine,5786-21-0,135398737,Yes,10.1016/j.jct.2021.106398
CN1CCN(C2=Nc3cc(Cl)ccc3Nc3ccccc32)CC1,313.15,ethanol,CCO,0.01047,0.17734542146648546,-0.7511800192445226,Clozapine,5786-21-0,135398737,Yes,10.1016/j.jct.2021.106398
CN1CCN(C2=Nc3cc(Cl)ccc3Nc3ccccc32)CC1,318.15,ethanol,CCO,0.01198,0.20204381073332936,-0.6945544488864273,Clozapine,5786-21-0,135398737,Yes,10.1016/j.jct.2021.106398
CN1CCN(C2=Nc3cc(Cl)ccc3Nc3ccccc32)CC1,323.15,ethanol,CCO,0.01335,0.22415463415476114,-0.6494522781364144,Clozapine,5786-21-0,135398737,Yes,10.1016/j.jct.2021.106398
CN(C)c1ccc(O)c2c1C[C@H]1C[C@H]3[C@H](N(C)C)C(O)=C(C(N)=O)C(=O)[C@@]3(O)C(O)=C1C2=O.Cl,273.15,ethanol,CCO,0.000707,0.01239346121310458,-1.9068073880686827,Minocycline hydrochloride,13614-98-7,54685925,Yes,10.1016/j.jct.2021.106399