SMILES_Solute,Temperature_K,Solvent,SMILES_Solvent,Solubility(mole_fraction),Solubility(mol/L),LogS(mol/L),Compound_Name,CAS,PubChem_CID,FDA_Approved,Source
O=[N+]([O-])c1cc([N+](=O)[O-])c(Cl)c([N+](=O)[O-])c1Cl,333.15,ethanol,CCO,0.008844999999999999,0.14613328782245205,-0.8352508444974169,"1,3-dichloro-2,4,6-trinitrobenzene",1630-09-7,3359041,No,10.1016/j.jct.2022.106819
CCOC(=O)OC1=C(c2cc(C)ccc2C)C(=O)NC12CCC(OC)CC2,278.15,ethanol,CCO,0.003188,0.05572029444737584,-1.2539865972636401,Spirotetramat,203313-25-1,9969573,No,10.1016/j.jct.2022.106854
CCOC(=O)OC1=C(c2cc(C)ccc2C)C(=O)NC12CCC(OC)CC2,283.15,ethanol,CCO,0.003856,0.06701796892323712,-1.1738087382255569,Spirotetramat,203313-25-1,9969573,No,10.1016/j.jct.2022.106854
CCOC(=O)OC1=C(c2cc(C)ccc2C)C(=O)NC12CCC(OC)CC2,288.15,ethanol,CCO,0.00504,0.08722753185944503,-1.0593464158995969,Spirotetramat,203313-25-1,9969573,No,10.1016/j.jct.2022.106854
CCOC(=O)OC1=C(c2cc(C)ccc2C)C(=O)NC12CCC(OC)CC2,293.15,ethanol,CCO,0.006242,0.10764998633594011,-0.9679860209656792,Spirotetramat,203313-25-1,9969573,No,10.1016/j.jct.2022.106854
CCOC(=O)OC1=C(c2cc(C)ccc2C)C(=O)NC12CCC(OC)CC2,298.15,ethanol,CCO,0.007995,0.13740524380393632,-0.8619966929558152,Spirotetramat,203313-25-1,9969573,No,10.1016/j.jct.2022.106854
CCOC(=O)OC1=C(c2cc(C)ccc2C)C(=O)NC12CCC(OC)CC2,303.15,ethanol,CCO,0.010320000000000001,0.17675493205840778,-0.7526284590820298,Spirotetramat,203313-25-1,9969573,No,10.1016/j.jct.2022.106854
CCOC(=O)OC1=C(c2cc(C)ccc2C)C(=O)NC12CCC(OC)CC2,308.15,ethanol,CCO,0.01318,0.22508896740909345,-0.6476457911424095,Spirotetramat,203313-25-1,9969573,No,10.1016/j.jct.2022.106854
CCOC(=O)OC1=C(c2cc(C)ccc2C)C(=O)NC12CCC(OC)CC2,313.15,ethanol,CCO,0.016919999999999998,0.2884787067255455,-0.5398862375962232,Spirotetramat,203313-25-1,9969573,No,10.1016/j.jct.2022.106854
CCOC(=O)OC1=C(c2cc(C)ccc2C)C(=O)NC12CCC(OC)CC2,318.15,ethanol,CCO,0.02185,0.3722206395462268,-0.4291995490114989,Spirotetramat,203313-25-1,9969573,No,10.1016/j.jct.2022.106854
COC1CCC2(CC1)NC(=O)C(c1cc(C)ccc1C)=C2O,288.15,ethanol,CCO,0.002554,0.04409203757637536,-1.3556398311412592,"cis-3-(2,5-dimethylphenyl)-4-hydroxy-8-methoxy-1-azaspiro[4.5]dec-3-en-2-one (si-vi)",203312-38-3,54708610,No,10.1016/j.jct.2022.106926
COC1CCC2(CC1)NC(=O)C(c1cc(C)ccc1C)=C2O,293.15,ethanol,CCO,0.002758,0.04739849513358285,-1.32423544662878,"cis-3-(2,5-dimethylphenyl)-4-hydroxy-8-methoxy-1-azaspiro[4.5]dec-3-en-2-one (si-vi)",203312-38-3,54708610,No,10.1016/j.jct.2022.106926
COC1CCC2(CC1)NC(=O)C(c1cc(C)ccc1C)=C2O,298.15,ethanol,CCO,0.003017,0.05159246250818356,-1.2874137427567975,"cis-3-(2,5-dimethylphenyl)-4-hydroxy-8-methoxy-1-azaspiro[4.5]dec-3-en-2-one (si-vi)",203312-38-3,54708610,No,10.1016/j.jct.2022.106926
COC1CCC2(CC1)NC(=O)C(c1cc(C)ccc1C)=C2O,303.15,ethanol,CCO,0.003408,0.05796539864756352,-1.2368311729996884,"cis-3-(2,5-dimethylphenyl)-4-hydroxy-8-methoxy-1-azaspiro[4.5]dec-3-en-2-one (si-vi)",203312-38-3,54708610,No,10.1016/j.jct.2022.106926
COC1CCC2(CC1)NC(=O)C(c1cc(C)ccc1C)=C2O,308.15,ethanol,CCO,0.003924,0.06639161971944753,-1.1778867359827292,"cis-3-(2,5-dimethylphenyl)-4-hydroxy-8-methoxy-1-azaspiro[4.5]dec-3-en-2-one (si-vi)",203312-38-3,54708610,No,10.1016/j.jct.2022.106926
COC1CCC2(CC1)NC(=O)C(c1cc(C)ccc1C)=C2O,313.15,ethanol,CCO,0.0044670000000000005,0.07520774312943483,-1.123737443646799,"cis-3-(2,5-dimethylphenyl)-4-hydroxy-8-methoxy-1-azaspiro[4.5]dec-3-en-2-one (si-vi)",203312-38-3,54708610,No,10.1016/j.jct.2022.106926
COC1CCC2(CC1)NC(=O)C(c1cc(C)ccc1C)=C2O,318.15,ethanol,CCO,0.0051270000000000005,0.08587171602349278,-1.066149858260156,"cis-3-(2,5-dimethylphenyl)-4-hydroxy-8-methoxy-1-azaspiro[4.5]dec-3-en-2-one (si-vi)",203312-38-3,54708610,No,10.1016/j.jct.2022.106926
COC1CCC2(CC1)NC(=O)C(c1cc(C)ccc1C)=C2O,323.15,ethanol,CCO,0.005961,0.09934483079939198,-1.0028547255718276,"cis-3-(2,5-dimethylphenyl)-4-hydroxy-8-methoxy-1-azaspiro[4.5]dec-3-en-2-one (si-vi)",203312-38-3,54708610,No,10.1016/j.jct.2022.106926
COC1CCC2(CC1)NC(=O)C(c1cc(C)ccc1C)=C2O,328.15,ethanol,CCO,0.006809999999999999,0.11290646930026395,-0.9472811732130892,"cis-3-(2,5-dimethylphenyl)-4-hydroxy-8-methoxy-1-azaspiro[4.5]dec-3-en-2-one (si-vi)",203312-38-3,54708610,No,10.1016/j.jct.2022.106926
O=C(O)COc1ccc2ccccc2c1,278.15,ethanol,CCO,0.01283,0.22643473864014507,-0.6450569447877026,2-naphthoxyacetic acid,120-23-0,8422,No,10.1016/j.jct.2022.106934
O=C(O)COc1ccc2ccccc2c1,283.15,ethanol,CCO,0.01518,0.2668647867945446,-0.5737087282347311,2-naphthoxyacetic acid,120-23-0,8422,No,10.1016/j.jct.2022.106934
O=C(O)COc1ccc2ccccc2c1,288.15,ethanol,CCO,0.01809,0.31724556012686567,-0.49860444717146174,2-naphthoxyacetic acid,120-23-0,8422,No,10.1016/j.jct.2022.106934
O=C(O)COc1ccc2ccccc2c1,293.15,ethanol,CCO,0.0217,0.38015309697702515,-0.42004146711447893,2-naphthoxyacetic acid,120-23-0,8422,No,10.1016/j.jct.2022.106934
O=C(O)COc1ccc2ccccc2c1,298.15,ethanol,CCO,0.02612,0.4572633835608981,-0.3398335743773317,2-naphthoxyacetic acid,120-23-0,8422,No,10.1016/j.jct.2022.106934
O=C(O)COc1ccc2ccccc2c1,303.15,ethanol,CCO,0.0315,0.5513121532264686,-0.2586024337478002,2-naphthoxyacetic acid,120-23-0,8422,No,10.1016/j.jct.2022.106934
O=C(O)COc1ccc2ccccc2c1,308.15,ethanol,CCO,0.03831,0.6713574201011114,-0.17304620673044938,2-naphthoxyacetic acid,120-23-0,8422,No,10.1016/j.jct.2022.106934
O=C(O)COc1ccc2ccccc2c1,313.15,ethanol,CCO,0.046950000000000006,0.8256997924303638,-0.08317782457976791,2-naphthoxyacetic acid,120-23-0,8422,No,10.1016/j.jct.2022.106934
O=C(O)COc1ccc2ccccc2c1,318.15,ethanol,CCO,0.0582,1.0297190977547084,0.012718767488385992,2-naphthoxyacetic acid,120-23-0,8422,No,10.1016/j.jct.2022.106934
O=C(O)COc1ccc2ccccc2c1,323.15,ethanol,CCO,0.07279,1.3005384272447151,0.11412318889927292,2-naphthoxyacetic acid,120-23-0,8422,No,10.1016/j.jct.2022.106934
O=c1c2ccccc2sc2ccccc12,292.15,ethanol,CCO,0.00019370000000000002,0.0033239281978114234,-2.4783483662450534,9H-thioxanthen-9-one,492-22-8,10295,No,10.1016/j.jct.2022.106947
O=c1c2ccccc2sc2ccccc12,297.05,ethanol,CCO,0.0002886,0.0049260689249019515,-2.3074995158637104,9H-thioxanthen-9-one,492-22-8,10295,No,10.1016/j.jct.2022.106947
O=c1c2ccccc2sc2ccccc12,302.05,ethanol,CCO,0.0004276,0.00725908255045543,-2.139118264761681,9H-thioxanthen-9-one,492-22-8,10295,No,10.1016/j.jct.2022.106947
O=c1c2ccccc2sc2ccccc12,305.05,ethanol,CCO,0.0005438,0.009201845245517854,-2.036125074872874,9H-thioxanthen-9-one,492-22-8,10295,No,10.1016/j.jct.2022.106947
O=c1c2ccccc2sc2ccccc12,307.95,ethanol,CCO,0.0006569000000000001,0.011080753129203907,-1.955430720768077,9H-thioxanthen-9-one,492-22-8,10295,No,10.1016/j.jct.2022.106947
O=c1c2ccccc2sc2ccccc12,311.15,ethanol,CCO,0.0008467,0.014233623814150694,-1.846684516491211,9H-thioxanthen-9-one,492-22-8,10295,No,10.1016/j.jct.2022.106947
O=c1c2ccccc2sc2ccccc12,313.85,ethanol,CCO,0.0010329999999999998,0.017315738351086293,-1.761558985202259,9H-thioxanthen-9-one,492-22-8,10295,No,10.1016/j.jct.2022.106947
O=c1c2ccccc2sc2ccccc12,316.85,ethanol,CCO,0.0012629999999999998,0.021104045178787084,-1.6756342920745804,9H-thioxanthen-9-one,492-22-8,10295,No,10.1016/j.jct.2022.106947
O=c1c2ccccc2sc2ccccc12,319.35,ethanol,CCO,0.0015329999999999999,0.025549719198657145,-1.5926138685681668,9H-thioxanthen-9-one,492-22-8,10295,No,10.1016/j.jct.2022.106947
O=c1c2ccccc2sc2ccccc12,322.55,ethanol,CCO,0.001887,0.03134605576719667,-1.5038170980966448,9H-thioxanthen-9-one,492-22-8,10295,No,10.1016/j.jct.2022.106947
O=c1c2ccccc2sc2ccccc12,326.55,ethanol,CCO,0.002467,0.040816962148727376,-1.3891593213039117,9H-thioxanthen-9-one,492-22-8,10295,No,10.1016/j.jct.2022.106947
O=c1c2ccccc2sc2ccccc12,331.55,ethanol,CCO,0.003418,0.05628011974152724,-1.2496449872317976,9H-thioxanthen-9-one,492-22-8,10295,No,10.1016/j.jct.2022.106947
O=c1c2ccccc2sc2ccccc12,335.95,ethanol,CCO,0.004516,0.07406297902850789,-1.1303988233475761,9H-thioxanthen-9-one,492-22-8,10295,No,10.1016/j.jct.2022.106947
Nc1cc(C(=O)O)ccc1C(=O)O,303.15,ethanol,CCO,0.03492,0.6133347296601198,-0.21230244298785203,2-aminoterephthalic acid,10312-55-7,2724822,No,10.1016/j.jct.2022.106948
Nc1cc(C(=O)O)ccc1C(=O)O,308.15,ethanol,CCO,0.03833,0.6717218764908829,-0.17281050746346074,2-aminoterephthalic acid,10312-55-7,2724822,No,10.1016/j.jct.2022.106948
Nc1cc(C(=O)O)ccc1C(=O)O,313.15,ethanol,CCO,0.04219,0.7382992426389552,-0.13176757708463416,2-aminoterephthalic acid,10312-55-7,2724822,No,10.1016/j.jct.2022.106948
Nc1cc(C(=O)O)ccc1C(=O)O,318.15,ethanol,CCO,0.0461,0.8052904439837004,-0.09404745445255196,2-aminoterephthalic acid,10312-55-7,2724822,No,10.1016/j.jct.2022.106948
Nc1cc(C(=O)O)ccc1C(=O)O,323.15,ethanol,CCO,0.05105,0.8912139846045481,-0.050018007326388135,2-aminoterephthalic acid,10312-55-7,2724822,No,10.1016/j.jct.2022.106948
Nc1cc(C(=O)O)ccc1C(=O)O,328.15,ethanol,CCO,0.05516,0.9613245639204786,-0.017129960383418696,2-aminoterephthalic acid,10312-55-7,2724822,No,10.1016/j.jct.2022.106948
Nc1cc(C(=O)O)ccc1C(=O)O,333.15,ethanol,CCO,0.05996,1.044499375782078,0.018908184771588225,2-aminoterephthalic acid,10312-55-7,2724822,No,10.1016/j.jct.2022.106948
Nc1cc(C(=O)O)ccc1C(=O)O,338.15,ethanol,CCO,0.06549,1.141198214262425,0.05736108340513892,2-aminoterephthalic acid,10312-55-7,2724822,No,10.1016/j.jct.2022.106948
CC(=O)N1CCN(c2ccc(O)cc2)CC1,283.15,ethanol,CCO,0.002185,0.03791209404130651,-1.4212222270357646,1-[4-(4-hydroxyphenyl)piperazin-1-yl]ethenone,67914-60-7,712441,No,10.1016/j.jct.2022.106969
CC(=O)N1CCN(c2ccc(O)cc2)CC1,288.15,ethanol,CCO,0.0027280000000000004,0.047104175808615166,-1.3269405907426224,1-[4-(4-hydroxyphenyl)piperazin-1-yl]ethenone,67914-60-7,712441,No,10.1016/j.jct.2022.106969
CC(=O)N1CCN(c2ccc(O)cc2)CC1,293.15,ethanol,CCO,0.003278,0.05636451281330895,-1.2489942424708298,1-[4-(4-hydroxyphenyl)piperazin-1-yl]ethenone,67914-60-7,712441,No,10.1016/j.jct.2022.106969
CC(=O)N1CCN(c2ccc(O)cc2)CC1,298.15,ethanol,CCO,0.003957,0.06773087133266854,-1.169213337319436,1-[4-(4-hydroxyphenyl)piperazin-1-yl]ethenone,67914-60-7,712441,No,10.1016/j.jct.2022.106969
CC(=O)N1CCN(c2ccc(O)cc2)CC1,303.15,ethanol,CCO,0.004673,0.07958232690341105,-1.099183366690795,1-[4-(4-hydroxyphenyl)piperazin-1-yl]ethenone,67914-60-7,712441,No,10.1016/j.jct.2022.106969
CC(=O)N1CCN(c2ccc(O)cc2)CC1,308.15,ethanol,CCO,0.0055119999999999995,0.0934085011210283,-1.0296135967683733,1-[4-(4-hydroxyphenyl)piperazin-1-yl]ethenone,67914-60-7,712441,No,10.1016/j.jct.2022.106969
CC(=O)N1CCN(c2ccc(O)cc2)CC1,313.15,ethanol,CCO,0.006337,0.10689240608326614,-0.9710531471137657,1-[4-(4-hydroxyphenyl)piperazin-1-yl]ethenone,67914-60-7,712441,No,10.1016/j.jct.2022.106969
CC(=O)N1CCN(c2ccc(O)cc2)CC1,318.15,ethanol,CCO,0.0074930000000000005,0.12579883612351553,-0.900323376915178,1-[4-(4-hydroxyphenyl)piperazin-1-yl]ethenone,67914-60-7,712441,No,10.1016/j.jct.2022.106969
CC(=O)N1CCN(c2ccc(O)cc2)CC1,323.15,ethanol,CCO,0.008874,0.14832697225635477,-0.8287798682771617,1-[4-(4-hydroxyphenyl)piperazin-1-yl]ethenone,67914-60-7,712441,No,10.1016/j.jct.2022.106969
O=C(Nc1ccc(F)cc1F)c1cccnc1Oc1cccc(C(F)(F)F)c1,278.15,ethanol,CCO,0.0002455,0.004278253126544182,-2.368733523595907,Diflufenican,83164-33-4,91735,No,10.1016/j.jct.2022.106981
O=C(Nc1ccc(F)cc1F)c1cccnc1Oc1cccc(C(F)(F)F)c1,283.15,ethanol,CCO,0.00032480000000000003,0.005625141639331855,-2.2498665376777915,Diflufenican,83164-33-4,91735,No,10.1016/j.jct.2022.106981
O=C(Nc1ccc(F)cc1F)c1cccnc1Oc1cccc(C(F)(F)F)c1,288.15,ethanol,CCO,0.0004255,0.007330153428611382,-2.134886934976617,Diflufenican,83164-33-4,91735,No,10.1016/j.jct.2022.106981
O=C(Nc1ccc(F)cc1F)c1cccnc1Oc1cccc(C(F)(F)F)c1,293.15,ethanol,CCO,0.0005503999999999999,0.009438182685190115,-2.025111620720327,Diflufenican,83164-33-4,91735,No,10.1016/j.jct.2022.106981
O=C(Nc1ccc(F)cc1F)c1cccnc1Oc1cccc(C(F)(F)F)c1,298.15,ethanol,CCO,0.0007027,0.011988750983844422,-1.9212260603606652,Diflufenican,83164-33-4,91735,No,10.1016/j.jct.2022.106981
O=C(Nc1ccc(F)cc1F)c1cccnc1Oc1cccc(C(F)(F)F)c1,303.15,ethanol,CCO,0.0008943,0.015172544907976997,-1.8189415684028114,Diflufenican,83164-33-4,91735,No,10.1016/j.jct.2022.106981
O=C(Nc1ccc(F)cc1F)c1cccnc1Oc1cccc(C(F)(F)F)c1,308.15,ethanol,CCO,0.001126,0.01899784863110874,-1.7212955769702731,Diflufenican,83164-33-4,91735,No,10.1016/j.jct.2022.106981
O=C(Nc1ccc(F)cc1F)c1cccnc1Oc1cccc(C(F)(F)F)c1,313.15,ethanol,CCO,0.001415,0.0237505497297568,-1.6243263337512448,Diflufenican,83164-33-4,91735,No,10.1016/j.jct.2022.106981
O=C(Nc1ccc(F)cc1F)c1cccnc1Oc1cccc(C(F)(F)F)c1,318.15,ethanol,CCO,0.001768,0.029512448472769265,-1.5299947581685833,Diflufenican,83164-33-4,91735,No,10.1016/j.jct.2022.106981
O=C(Nc1ccc(F)cc1F)c1cccnc1Oc1cccc(C(F)(F)F)c1,323.15,ethanol,CCO,0.002203,0.03657647760899025,-1.4367981203094535,Diflufenican,83164-33-4,91735,No,10.1016/j.jct.2022.106981
Cc1c(-c2ccccc2)oc2c(C(=O)OCCN3CCCCC3)cccc2c1=O.Cl,278.15,ethanol,CCO,8.806e-05,0.001534352955953343,-2.814074725660298,Flavoxate hydrochloride,3717-88-2,441345,Yes,10.1016/j.jct.2022.106985
Cc1c(-c2ccccc2)oc2c(C(=O)OCCN3CCCCC3)cccc2c1=O.Cl,283.15,ethanol,CCO,9.893e-05,0.0017129604506092742,-2.766252664051674,Flavoxate hydrochloride,3717-88-2,441345,Yes,10.1016/j.jct.2022.106985
Cc1c(-c2ccccc2)oc2c(C(=O)OCCN3CCCCC3)cccc2c1=O.Cl,288.15,ethanol,CCO,0.00011740000000000001,0.002021844519032197,-2.694252244948098,Flavoxate hydrochloride,3717-88-2,441345,Yes,10.1016/j.jct.2022.106985
Cc1c(-c2ccccc2)oc2c(C(=O)OCCN3CCCCC3)cccc2c1=O.Cl,293.15,ethanol,CCO,0.0001426,0.0024442876467813865,-2.611847687112366,Flavoxate hydrochloride,3717-88-2,441345,Yes,10.1016/j.jct.2022.106985
Cc1c(-c2ccccc2)oc2c(C(=O)OCCN3CCCCC3)cccc2c1=O.Cl,298.15,ethanol,CCO,0.00018240000000000002,0.0031103034108570416,-2.507197243373911,Flavoxate hydrochloride,3717-88-2,441345,Yes,10.1016/j.jct.2022.106985
Cc1c(-c2ccccc2)oc2c(C(=O)OCCN3CCCCC3)cccc2c1=O.Cl,303.15,ethanol,CCO,0.0002203,0.003735053442879296,-2.427703179716983,Flavoxate hydrochloride,3717-88-2,441345,Yes,10.1016/j.jct.2022.106985
Cc1c(-c2ccccc2)oc2c(C(=O)OCCN3CCCCC3)cccc2c1=O.Cl,308.15,ethanol,CCO,0.00028399999999999996,0.004787606397097976,-2.319881561397401,Flavoxate hydrochloride,3717-88-2,441345,Yes,10.1016/j.jct.2022.106985
Cc1c(-c2ccccc2)oc2c(C(=O)OCCN3CCCCC3)cccc2c1=O.Cl,313.15,ethanol,CCO,0.00036449999999999997,0.006111645090281069,-2.213841873641761,Flavoxate hydrochloride,3717-88-2,441345,Yes,10.1016/j.jct.2022.106985
Cc1c(-c2ccccc2)oc2c(C(=O)OCCN3CCCCC3)cccc2c1=O.Cl,318.15,ethanol,CCO,0.0004517,0.007530100536757369,-2.1231992253574035,Flavoxate hydrochloride,3717-88-2,441345,Yes,10.1016/j.jct.2022.106985
Cc1c(-c2ccccc2)oc2c(C(=O)OCCN3CCCCC3)cccc2c1=O.Cl,323.15,ethanol,CCO,0.0005653,0.009370313861017832,-2.0282458620657686,Flavoxate hydrochloride,3717-88-2,441345,Yes,10.1016/j.jct.2022.106985
CC(=O)c1c(C)cc(C(C)(C)C)cc1C,273.15,ethanol,CCO,0.07014,1.3213389553264985,0.12101423892057933,"1-(4-tert-butyl-2,6-dimethylphenyl)ethenone",2040-10-0,74879,No,10.1016/j.jct.2023.107019
CC(=O)c1c(C)cc(C(C)(C)C)cc1C,278.15,ethanol,CCO,0.095,1.8288722641273467,0.26218337364378236,"1-(4-tert-butyl-2,6-dimethylphenyl)ethenone",2040-10-0,74879,No,10.1016/j.jct.2023.107019
CC(=O)c1c(C)cc(C(C)(C)C)cc1C,283.15,ethanol,CCO,0.1403,2.8254466038525092,0.45108710428253457,"1-(4-tert-butyl-2,6-dimethylphenyl)ethenone",2040-10-0,74879,No,10.1016/j.jct.2023.107019
CC(=O)c1c(C)cc(C(C)(C)C)cc1C,288.15,ethanol,CCO,0.1958,4.1925407035581586,0.6224772876752351,"1-(4-tert-butyl-2,6-dimethylphenyl)ethenone",2040-10-0,74879,No,10.1016/j.jct.2023.107019
CC(=O)c1c(C)cc(C(C)(C)C)cc1C,293.15,ethanol,CCO,0.2703,6.348520875698564,0.8026725520086688,"1-(4-tert-butyl-2,6-dimethylphenyl)ethenone",2040-10-0,74879,No,10.1016/j.jct.2023.107019
CC(=O)c1c(C)cc(C(C)(C)C)cc1C,298.15,ethanol,CCO,0.3704,10.030092974454675,1.001304958753766,"1-(4-tert-butyl-2,6-dimethylphenyl)ethenone",2040-10-0,74879,No,10.1016/j.jct.2023.107019
CC(=O)c1c(C)cc(C(C)(C)C)cc1C,303.15,ethanol,CCO,0.5202,18.377936294355067,1.2642967417457711,"1-(4-tert-butyl-2,6-dimethylphenyl)ethenone",2040-10-0,74879,No,10.1016/j.jct.2023.107019
CC(=O)c1c(C)cc(C(C)(C)C)cc1C,308.15,ethanol,CCO,0.7051,40.295141347424206,1.6052526835304004,"1-(4-tert-butyl-2,6-dimethylphenyl)ethenone",2040-10-0,74879,No,10.1016/j.jct.2023.107019
CONC(=O)Nc1ccc(-c2sc3c(c2CN(C)C)c(=O)n(-c2ccc(OC)nn2)c(=O)n3Cc2c(F)cccc2F)cc1,298.15,ethanol,CCO,0.000134,0.002284871064515391,-2.6411383021802957,Relugolix,737789-87-6,10348973,Yes,10.1016/j.jct.2023.107052
CONC(=O)Nc1ccc(-c2sc3c(c2CN(C)C)c(=O)n(-c2ccc(OC)nn2)c(=O)n3Cc2c(F)cccc2F)cc1,303.15,ethanol,CCO,0.000152,0.0025768921542987213,-2.588903756758771,Relugolix,737789-87-6,10348973,Yes,10.1016/j.jct.2023.107052
CONC(=O)Nc1ccc(-c2sc3c(c2CN(C)C)c(=O)n(-c2ccc(OC)nn2)c(=O)n3Cc2c(F)cccc2F)cc1,308.15,ethanol,CCO,0.000171,0.00288235270127912,-2.5402528774959583,Relugolix,737789-87-6,10348973,Yes,10.1016/j.jct.2023.107052
CONC(=O)Nc1ccc(-c2sc3c(c2CN(C)C)c(=O)n(-c2ccc(OC)nn2)c(=O)n3Cc2c(F)cccc2F)cc1,313.15,ethanol,CCO,0.00020899999999999998,0.0035038001562078002,-2.4554606723473555,Relugolix,737789-87-6,10348973,Yes,10.1016/j.jct.2023.107052
CONC(=O)Nc1ccc(-c2sc3c(c2CN(C)C)c(=O)n(-c2ccc(OC)nn2)c(=O)n3Cc2c(F)cccc2F)cc1,318.15,ethanol,CCO,0.00025,0.004166803927207679,-2.3801969351883208,Relugolix,737789-87-6,10348973,Yes,10.1016/j.jct.2023.107052
CONC(=O)Nc1ccc(-c2sc3c(c2CN(C)C)c(=O)n(-c2ccc(OC)nn2)c(=O)n3Cc2c(F)cccc2F)cc1,323.15,ethanol,CCO,0.000301,0.004988004243691381,-2.3020731857045282,Relugolix,737789-87-6,10348973,Yes,10.1016/j.jct.2023.107052
CC(=O)Oc1ccc(C(c2ccc(OC(C)=O)cc2)c2ccccn2)cc1,278.15,ethanol,CCO,0.000239,0.004164952543336009,-2.3803899427049053,Bisacodyl,603-50-9,2391,Yes,10.1016/j.jct.2023.107054
CC(=O)Oc1ccc(C(c2ccc(OC(C)=O)cc2)c2ccccn2)cc1,283.15,ethanol,CCO,0.0003325,0.0057585406454338205,-2.239687563440906,Bisacodyl,603-50-9,2391,Yes,10.1016/j.jct.2023.107054
CC(=O)Oc1ccc(C(c2ccc(OC(C)=O)cc2)c2ccccn2)cc1,288.15,ethanol,CCO,0.0004523,0.007792050033956638,-2.108348267448549,Bisacodyl,603-50-9,2391,Yes,10.1016/j.jct.2023.107054
CC(=O)Oc1ccc(C(c2ccc(OC(C)=O)cc2)c2ccccn2)cc1,293.15,ethanol,CCO,0.0006178,0.010594662988993996,-1.9749128534268134,Bisacodyl,603-50-9,2391,Yes,10.1016/j.jct.2023.107054
CC(=O)Oc1ccc(C(c2ccc(OC(C)=O)cc2)c2ccccn2)cc1,298.15,ethanol,CCO,0.0008349,0.014246097261811072,-1.8463040949399505,Bisacodyl,603-50-9,2391,Yes,10.1016/j.jct.2023.107054
CC(=O)Oc1ccc(C(c2ccc(OC(C)=O)cc2)c2ccccn2)cc1,303.15,ethanol,CCO,0.001104,0.018734212275794315,-1.727364563123585,Bisacodyl,603-50-9,2391,Yes,10.1016/j.jct.2023.107054
CC(=O)Oc1ccc(C(c2ccc(OC(C)=O)cc2)c2ccccn2)cc1,308.15,ethanol,CCO,0.001451,0.024489209851221664,-1.6110252272391188,Bisacodyl,603-50-9,2391,Yes,10.1016/j.jct.2023.107054
CC(=O)Oc1ccc(C(c2ccc(OC(C)=O)cc2)c2ccccn2)cc1,313.15,ethanol,CCO,0.001922,0.032276851566683626,-1.491108834975446,Bisacodyl,603-50-9,2391,Yes,10.1016/j.jct.2023.107054
CC(=O)Oc1ccc(C(c2ccc(OC(C)=O)cc2)c2ccccn2)cc1,318.15,ethanol,CCO,0.002504,0.0418290143097099,-1.3785223693399438,Bisacodyl,603-50-9,2391,Yes,10.1016/j.jct.2023.107054
CC(=O)Oc1ccc(C(c2ccc(OC(C)=O)cc2)c2ccccn2)cc1,323.15,ethanol,CCO,0.003221,0.05353298020787946,-1.2713785785517546,Bisacodyl,603-50-9,2391,Yes,10.1016/j.jct.2023.107054
COc1cc(/C=C/C(=O)O)cc(OC)c1OC,278.15,ethanol,CCO,0.006261,0.1097690023273578,-0.9595202830078348,"3,4,5-trimethoxycinnamic acid",90-50-6,735755,No,10.1016/j.jct.2023.107055
COc1cc(/C=C/C(=O)O)cc(OC)c1OC,283.15,ethanol,CCO,0.008504000000000001,0.14849391075665655,-0.8282913549595896,"3,4,5-trimethoxycinnamic acid",90-50-6,735755,No,10.1016/j.jct.2023.107055
COc1cc(/C=C/C(=O)O)cc(OC)c1OC,288.15,ethanol,CCO,0.01144,0.19927446863770584,-0.7005483402360098,"3,4,5-trimethoxycinnamic acid",90-50-6,735755,No,10.1016/j.jct.2023.107055
COc1cc(/C=C/C(=O)O)cc(OC)c1OC,293.15,ethanol,CCO,0.015330000000000002,0.2668224090638671,-0.5737776990279985,"3,4,5-trimethoxycinnamic acid",90-50-6,735755,No,10.1016/j.jct.2023.107055
COc1cc(/C=C/C(=O)O)cc(OC)c1OC,298.15,ethanol,CCO,0.020130000000000002,0.3502466689671137,-0.4556259863950236,"3,4,5-trimethoxycinnamic acid",90-50-6,735755,No,10.1016/j.jct.2023.107055