SMILES_Solute,Temperature_K,Solvent,SMILES_Solvent,Solubility(mole_fraction),Solubility(mol/L),LogS(mol/L),Compound_Name,CAS,PubChem_CID,FDA_Approved,Source
CN(C/C=C/C#CC(C)(C)C)Cc1cccc2ccccc12.Cl,278.15,ethanol,CCO,0.01871,0.33218862878079936,-0.47861523805643374,Terbinafine hydrochloride,78628-80-5,5282481,Yes,10.1016/j.molliq.2017.08.052
CN(C/C=C/C#CC(C)(C)C)Cc1cccc2ccccc12.Cl,280.65,ethanol,CCO,0.01967,0.3486235727248297,-0.4576432507366488,Terbinafine hydrochloride,78628-80-5,5282481,Yes,10.1016/j.molliq.2017.08.052
CN(C/C=C/C#CC(C)(C)C)Cc1cccc2ccccc12.Cl,283.15,ethanol,CCO,0.020710000000000003,0.3661382817831253,-0.4363548608535388,Terbinafine hydrochloride,78628-80-5,5282481,Yes,10.1016/j.molliq.2017.08.052
CN(C/C=C/C#CC(C)(C)C)Cc1cccc2ccccc12.Cl,285.65,ethanol,CCO,0.02173,0.3838385770602502,-0.415851379359641,Terbinafine hydrochloride,78628-80-5,5282481,Yes,10.1016/j.molliq.2017.08.052
CN(C/C=C/C#CC(C)(C)C)Cc1cccc2ccccc12.Cl,288.15,ethanol,CCO,0.022930000000000002,0.4041169297542588,-0.39349295518753624,Terbinafine hydrochloride,78628-80-5,5282481,Yes,10.1016/j.molliq.2017.08.052
CN(C/C=C/C#CC(C)(C)C)Cc1cccc2ccccc12.Cl,290.65,ethanol,CCO,0.02411,0.4245744323771817,-0.37204616234108256,Terbinafine hydrochloride,78628-80-5,5282481,Yes,10.1016/j.molliq.2017.08.052
CN(C/C=C/C#CC(C)(C)C)Cc1cccc2ccccc12.Cl,293.15,ethanol,CCO,0.02538,0.4463002715712426,-0.3503728488936041,Terbinafine hydrochloride,78628-80-5,5282481,Yes,10.1016/j.molliq.2017.08.052
CN(C/C=C/C#CC(C)(C)C)Cc1cccc2ccccc12.Cl,295.65,ethanol,CCO,0.026600000000000002,0.46702962304291945,-0.330655571862025,Terbinafine hydrochloride,78628-80-5,5282481,Yes,10.1016/j.molliq.2017.08.052
CN(C/C=C/C#CC(C)(C)C)Cc1cccc2ccccc12.Cl,298.15,ethanol,CCO,0.02791,0.4894992842006639,-0.3102479389332215,Terbinafine hydrochloride,78628-80-5,5282481,Yes,10.1016/j.molliq.2017.08.052
CN(C/C=C/C#CC(C)(C)C)Cc1cccc2ccccc12.Cl,300.65,ethanol,CCO,0.02932,0.5133638486306042,-0.2895747178481403,Terbinafine hydrochloride,78628-80-5,5282481,Yes,10.1016/j.molliq.2017.08.052
CN(C/C=C/C#CC(C)(C)C)Cc1cccc2ccccc12.Cl,303.15,ethanol,CCO,0.030910000000000003,0.5406566267637075,-0.267078469545398,Terbinafine hydrochloride,78628-80-5,5282481,Yes,10.1016/j.molliq.2017.08.052
CN(C/C=C/C#CC(C)(C)C)Cc1cccc2ccccc12.Cl,305.65,ethanol,CCO,0.03262,0.5698938763768214,-0.24420600958178243,Terbinafine hydrochloride,78628-80-5,5282481,Yes,10.1016/j.molliq.2017.08.052
CN(C/C=C/C#CC(C)(C)C)Cc1cccc2ccccc12.Cl,308.15,ethanol,CCO,0.03424,0.5975046419911149,-0.22365871634920526,Terbinafine hydrochloride,78628-80-5,5282481,Yes,10.1016/j.molliq.2017.08.052
CN(C/C=C/C#CC(C)(C)C)Cc1cccc2ccccc12.Cl,310.65,ethanol,CCO,0.036019999999999996,0.6279699866328458,-0.20206111255456186,Terbinafine hydrochloride,78628-80-5,5282481,Yes,10.1016/j.molliq.2017.08.052
CN(C/C=C/C#CC(C)(C)C)Cc1cccc2ccccc12.Cl,313.15,ethanol,CCO,0.03785,0.6593642009174506,-0.18087463584931007,Terbinafine hydrochloride,78628-80-5,5282481,Yes,10.1016/j.molliq.2017.08.052
Cc1occc(=O)c1O,288.15,ethanol,CCO,0.008942,0.1553689615146029,-0.8086357370749863,Maltol,118-71-8,8369,No,10.1016/j.molliq.2017.08.054
Cc1occc(=O)c1O,293.15,ethanol,CCO,0.01058,0.18326344042990317,-0.7369241646241264,Maltol,118-71-8,8369,No,10.1016/j.molliq.2017.08.054
Cc1occc(=O)c1O,298.15,ethanol,CCO,0.0125,0.21581002189615958,-0.6659283911955641,Maltol,118-71-8,8369,No,10.1016/j.molliq.2017.08.054
Cc1occc(=O)c1O,303.15,ethanol,CCO,0.015600000000000001,0.26862079546440104,-0.5708603691585743,Maltol,118-71-8,8369,No,10.1016/j.molliq.2017.08.054
Cc1occc(=O)c1O,308.15,ethanol,CCO,0.02113,0.36379038782322504,-0.4391487801776537,Maltol,118-71-8,8369,No,10.1016/j.molliq.2017.08.054
Cc1occc(=O)c1O,313.15,ethanol,CCO,0.02726,0.4697116600316133,-0.3281686588405206,Maltol,118-71-8,8369,No,10.1016/j.molliq.2017.08.054
Cc1occc(=O)c1O,318.15,ethanol,CCO,0.03311,0.5706063246505345,-0.2436634188941468,Maltol,118-71-8,8369,No,10.1016/j.molliq.2017.08.054
Cc1occc(=O)c1O,323.15,ethanol,CCO,0.04272,0.7393019214066356,-0.13117816509260166,Maltol,118-71-8,8369,No,10.1016/j.molliq.2017.08.054
Cc1c(N)c(=O)n(-c2ccccc2)n1C,299.05,ethanol,CCO,0.22,4.802200574837686,0.6814402953974031,4-aminoantipyrine,83-07-8,2151,No,10.1016/j.molliq.2017.08.116
Cc1c(N)c(=O)n(-c2ccccc2)n1C,303.15,ethanol,CCO,0.25,5.650220321691376,0.7520653827980666,4-aminoantipyrine,83-07-8,2151,No,10.1016/j.molliq.2017.08.116
Cc1c(N)c(=O)n(-c2ccccc2)n1C,307.25,ethanol,CCO,0.28,6.560729149933056,0.8169521089175605,4-aminoantipyrine,83-07-8,2151,No,10.1016/j.molliq.2017.08.116
Cc1c(N)c(=O)n(-c2ccccc2)n1C,311.05,ethanol,CCO,0.31,7.5470928899899,0.8777796953421034,4-aminoantipyrine,83-07-8,2151,No,10.1016/j.molliq.2017.08.116
Cc1c(N)c(=O)n(-c2ccccc2)n1C,315.15,ethanol,CCO,0.35,9.003399628521363,0.9544065273420946,4-aminoantipyrine,83-07-8,2151,No,10.1016/j.molliq.2017.08.116
Cc1c(N)c(=O)n(-c2ccccc2)n1C,321.05,ethanol,CCO,0.41,11.541630785235396,1.0622671771897962,4-aminoantipyrine,83-07-8,2151,No,10.1016/j.molliq.2017.08.116
Cc1c(N)c(=O)n(-c2ccccc2)n1C,327.15,ethanol,CCO,0.48,15.224292460919807,1.1825371182206126,4-aminoantipyrine,83-07-8,2151,No,10.1016/j.molliq.2017.08.116
Cc1c(N)c(=O)n(-c2ccccc2)n1C,338.35,ethanol,CCO,0.6,24.42081311390084,1.3877601200921281,4-aminoantipyrine,83-07-8,2151,No,10.1016/j.molliq.2017.08.116
CC(=O)CCc1ccc(O)cc1,293.15,ethanol,CCO,0.1804,3.7722931591324365,0.5766054360393764,4-(4-hydroxyphenyl)-2-butanone (raspberry ketone),5471-51-2,21648,No,10.1016/j.molliq.2017.09.084
CC(=O)CCc1ccc(O)cc1,298.15,ethanol,CCO,0.2137,4.633561659236341,0.6659149465926839,4-(4-hydroxyphenyl)-2-butanone (raspberry ketone),5471-51-2,21648,No,10.1016/j.molliq.2017.09.084
CC(=O)CCc1ccc(O)cc1,303.15,ethanol,CCO,0.24710000000000001,5.56316685412381,0.7453220857791439,4-(4-hydroxyphenyl)-2-butanone (raspberry ketone),5471-51-2,21648,No,10.1016/j.molliq.2017.09.084
CC(=O)CCc1ccc(O)cc1,308.15,ethanol,CCO,0.295,7.051956754969304,0.8483096403919204,4-(4-hydroxyphenyl)-2-butanone (raspberry ketone),5471-51-2,21648,No,10.1016/j.molliq.2017.09.084
CC(=O)CCc1ccc(O)cc1,313.15,ethanol,CCO,0.3448,8.820549325010024,0.9454956329086556,4-(4-hydroxyphenyl)-2-butanone (raspberry ketone),5471-51-2,21648,No,10.1016/j.molliq.2017.09.084
CC(=O)CCc1ccc(O)cc1,318.15,ethanol,CCO,0.405,11.342075305018357,1.0546925264313203,4-(4-hydroxyphenyl)-2-butanone (raspberry ketone),5471-51-2,21648,No,10.1016/j.molliq.2017.09.084
CC(=O)CCc1ccc(O)cc1,323.15,ethanol,CCO,0.4607,14.151985285641864,1.1508173683493867,4-(4-hydroxyphenyl)-2-butanone (raspberry ketone),5471-51-2,21648,No,10.1016/j.molliq.2017.09.084
CC(=O)CCc1ccc(O)cc1,328.15,ethanol,CCO,0.5249,18.19263454255349,1.2598955954045377,4-(4-hydroxyphenyl)-2-butanone (raspberry ketone),5471-51-2,21648,No,10.1016/j.molliq.2017.09.084
CC(=O)CCc1ccc(O)cc1,333.15,ethanol,CCO,0.5903,23.593898875874622,1.3727997136861554,4-(4-hydroxyphenyl)-2-butanone (raspberry ketone),5471-51-2,21648,No,10.1016/j.molliq.2017.09.084
COc1c(C)c2c(c(O)c1C/C=C(\C)CCC(=O)OCCN1CCOCC1)C(=O)OC2,298.2,ethanol,CCO,0.00613,0.10511245305785206,-0.9783458284634315,Mycophenolate mofetil,128794-94-5,5281078,Yes,10.1016/j.molliq.2017.11.028
COc1c(C)c2c(c(O)c1C/C=C(\C)CCC(=O)OCCN1CCOCC1)C(=O)OC2,303.2,ethanol,CCO,0.0067599999999999995,0.11534324336370101,-0.9380078407250699,Mycophenolate mofetil,128794-94-5,5281078,Yes,10.1016/j.molliq.2017.11.028
COc1c(C)c2c(c(O)c1C/C=C(\C)CCC(=O)OCCN1CCOCC1)C(=O)OC2,308.2,ethanol,CCO,0.00749,0.12717723422021884,-0.8955906240446379,Mycophenolate mofetil,128794-94-5,5281078,Yes,10.1016/j.molliq.2017.11.028
COc1c(C)c2c(c(O)c1C/C=C(\C)CCC(=O)OCCN1CCOCC1)C(=O)OC2,313.2,ethanol,CCO,0.00833,0.14076325663284595,-0.8515106940866773,Mycophenolate mofetil,128794-94-5,5281078,Yes,10.1016/j.molliq.2017.11.028
COc1c(C)c2c(c(O)c1C/C=C(\C)CCC(=O)OCCN1CCOCC1)C(=O)OC2,318.2,ethanol,CCO,0.00906,0.1523447307014854,-0.8171725625561352,Mycophenolate mofetil,128794-94-5,5281078,Yes,10.1016/j.molliq.2017.11.028
O=C(/C=C/C=C/c1ccc2c(c1)OCO2)N1CCCCC1,298.2,ethanol,CCO,0.00899,0.154598378138595,-0.8107950664924239,Piperine,94-62-2,638024,No,10.1016/j.molliq.2017.11.167
O=C(/C=C/C=C/c1ccc2c(c1)OCO2)N1CCCCC1,303.2,ethanol,CCO,0.01,0.1711845123402104,-0.766535530017783,Piperine,94-62-2,638024,No,10.1016/j.molliq.2017.11.167
O=C(/C=C/C=C/c1ccc2c(c1)OCO2)N1CCCCC1,308.2,ethanol,CCO,0.011000000000000001,0.18743851850934426,-0.7271411570069081,Piperine,94-62-2,638024,No,10.1016/j.molliq.2017.11.167
O=C(/C=C/C=C/c1ccc2c(c1)OCO2)N1CCCCC1,313.2,ethanol,CCO,0.012,0.20353344387890365,-0.6913642188776312,Piperine,94-62-2,638024,No,10.1016/j.molliq.2017.11.167
O=C(/C=C/C=C/c1ccc2c(c1)OCO2)N1CCCCC1,318.2,ethanol,CCO,0.0134,0.22631340891945684,-0.6452897136227875,Piperine,94-62-2,638024,No,10.1016/j.molliq.2017.11.167
CC(C)(C)c1cc(CCC(=O)NCCCCCCNC(=O)CCc2cc(C(C)(C)C)c(O)c(C(C)(C)C)c2)cc(C(C)(C)C)c1O,283.15,ethanol,CCO,0.00775,0.13522498904157262,-0.8689430450804606,"1,6-bis[3-(3,5-di-tert-butyl-4-hydroxyphenyl)propionamido]hexane",23128-74-7,90004,No,10.1016/j.molliq.2017.12.113
CC(C)(C)c1cc(CCC(=O)NCCCCCCNC(=O)CCc2cc(C(C)(C)C)c(O)c(C(C)(C)C)c2)cc(C(C)(C)C)c1O,288.15,ethanol,CCO,0.00841,0.14604696167017106,-0.8355074735661893,"1,6-bis[3-(3,5-di-tert-butyl-4-hydroxyphenyl)propionamido]hexane",23128-74-7,90004,No,10.1016/j.molliq.2017.12.113
CC(C)(C)c1cc(CCC(=O)NCCCCCCNC(=O)CCc2cc(C(C)(C)C)c(O)c(C(C)(C)C)c2)cc(C(C)(C)C)c1O,293.15,ethanol,CCO,0.00982,0.16996840160547846,-0.7696318097035114,"1,6-bis[3-(3,5-di-tert-butyl-4-hydroxyphenyl)propionamido]hexane",23128-74-7,90004,No,10.1016/j.molliq.2017.12.113
CC(C)(C)c1cc(CCC(=O)NCCCCCCNC(=O)CCc2cc(C(C)(C)C)c(O)c(C(C)(C)C)c2)cc(C(C)(C)C)c1O,298.15,ethanol,CCO,0.011,0.18962478162564478,-0.722104906344077,"1,6-bis[3-(3,5-di-tert-butyl-4-hydroxyphenyl)propionamido]hexane",23128-74-7,90004,No,10.1016/j.molliq.2017.12.113
CC(C)(C)c1cc(CCC(=O)NCCCCCCNC(=O)CCc2cc(C(C)(C)C)c(O)c(C(C)(C)C)c2)cc(C(C)(C)C)c1O,303.15,ethanol,CCO,0.0126,0.21630375547896902,-0.6649359402482203,"1,6-bis[3-(3,5-di-tert-butyl-4-hydroxyphenyl)propionamido]hexane",23128-74-7,90004,No,10.1016/j.molliq.2017.12.113
CC(C)(C)c1cc(CCC(=O)NCCCCCCNC(=O)CCc2cc(C(C)(C)C)c(O)c(C(C)(C)C)c2)cc(C(C)(C)C)c1O,308.15,ethanol,CCO,0.0148,0.25317105631601855,-0.596585946366952,"1,6-bis[3-(3,5-di-tert-butyl-4-hydroxyphenyl)propionamido]hexane",23128-74-7,90004,No,10.1016/j.molliq.2017.12.113
CC(C)(C)c1cc(CCC(=O)NCCCCCCNC(=O)CCc2cc(C(C)(C)C)c(O)c(C(C)(C)C)c2)cc(C(C)(C)C)c1O,313.15,ethanol,CCO,0.0178,0.3037542317517736,-0.5174776629783486,"1,6-bis[3-(3,5-di-tert-butyl-4-hydroxyphenyl)propionamido]hexane",23128-74-7,90004,No,10.1016/j.molliq.2017.12.113
CC(C)(C)c1cc(CCC(=O)NCCCCCCNC(=O)CCc2cc(C(C)(C)C)c(O)c(C(C)(C)C)c2)cc(C(C)(C)C)c1O,318.15,ethanol,CCO,0.0218,0.3713498938119981,-0.43021669593545747,"1,6-bis[3-(3,5-di-tert-butyl-4-hydroxyphenyl)propionamido]hexane",23128-74-7,90004,No,10.1016/j.molliq.2017.12.113
CC(C)(C)c1cc(CCC(=O)NCCCCCCNC(=O)CCc2cc(C(C)(C)C)c(O)c(C(C)(C)C)c2)cc(C(C)(C)C)c1O,323.15,ethanol,CCO,0.0264,0.4492136433626149,-0.347547061967308,"1,6-bis[3-(3,5-di-tert-butyl-4-hydroxyphenyl)propionamido]hexane",23128-74-7,90004,No,10.1016/j.molliq.2017.12.113
O=c1cc(-c2ccc(O)c(O)c2)oc2cc(O)cc(O)c12,298.2,ethanol,CCO,0.00188,0.03209950756275664,-1.493501630038053,Luteolin,491-70-3,5280445,No,10.1016/j.molliq.2018.01.155
O=c1cc(-c2ccc(O)c(O)c2)oc2cc(O)cc(O)c12,303.2,ethanol,CCO,0.00209,0.03549396984528958,-1.4498454239974574,Luteolin,491-70-3,5280445,No,10.1016/j.molliq.2018.01.155
O=c1cc(-c2ccc(O)c(O)c2)oc2cc(O)cc(O)c12,308.2,ethanol,CCO,0.0024100000000000002,0.04071246563142964,-1.39027259504879,Luteolin,491-70-3,5280445,No,10.1016/j.molliq.2018.01.155
O=c1cc(-c2ccc(O)c(O)c2)oc2cc(O)cc(O)c12,313.2,ethanol,CCO,0.00273,0.04587344669012521,-1.3384386280331144,Luteolin,491-70-3,5280445,No,10.1016/j.molliq.2018.01.155
O=c1cc(-c2ccc(O)c(O)c2)oc2cc(O)cc(O)c12,318.2,ethanol,CCO,0.0030800000000000003,0.05147981847216316,-1.28836299317163,Luteolin,491-70-3,5280445,No,10.1016/j.molliq.2018.01.155
OC[C@H]1O[C@@H](Oc2c(O)cc(O)cc2/C=C/c2ccc(O)cc2)[C@H](O)[C@@H](O)[C@@H]1O,278.15,ethanol,CCO,0.00757,0.13289368467400148,-0.8764956569534351,"2,3,5,4-tetrahydroxystilbene-2-o--d-glucoside",82373-94-2,5321884,No,10.1016/j.molliq.2018.02.046
OC[C@H]1O[C@@H](Oc2c(O)cc(O)cc2/C=C/c2ccc(O)cc2)[C@H](O)[C@@H](O)[C@@H]1O,283.15,ethanol,CCO,0.00881,0.1538846696514967,-0.8128046434393897,"2,3,5,4-tetrahydroxystilbene-2-o--d-glucoside",82373-94-2,5321884,No,10.1016/j.molliq.2018.02.046
OC[C@H]1O[C@@H](Oc2c(O)cc(O)cc2/C=C/c2ccc(O)cc2)[C@H](O)[C@@H](O)[C@@H]1O,288.15,ethanol,CCO,0.01083,0.18853248382779134,-0.7246138108070593,"2,3,5,4-tetrahydroxystilbene-2-o--d-glucoside",82373-94-2,5321884,No,10.1016/j.molliq.2018.02.046
OC[C@H]1O[C@@H](Oc2c(O)cc(O)cc2/C=C/c2ccc(O)cc2)[C@H](O)[C@@H](O)[C@@H]1O,293.15,ethanol,CCO,0.013640000000000001,0.23700077760648736,-0.6252502290546534,"2,3,5,4-tetrahydroxystilbene-2-o--d-glucoside",82373-94-2,5321884,No,10.1016/j.molliq.2018.02.046
OC[C@H]1O[C@@H](Oc2c(O)cc(O)cc2/C=C/c2ccc(O)cc2)[C@H](O)[C@@H](O)[C@@H]1O,298.15,ethanol,CCO,0.0159,0.27545876283280774,-0.5599434073915807,"2,3,5,4-tetrahydroxystilbene-2-o--d-glucoside",82373-94-2,5321884,No,10.1016/j.molliq.2018.02.046
OC[C@H]1O[C@@H](Oc2c(O)cc(O)cc2/C=C/c2ccc(O)cc2)[C@H](O)[C@@H](O)[C@@H]1O,303.15,ethanol,CCO,0.01989,0.3439906200276749,-0.46345339965452026,"2,3,5,4-tetrahydroxystilbene-2-o--d-glucoside",82373-94-2,5321884,No,10.1016/j.molliq.2018.02.046
OC[C@H]1O[C@@H](Oc2c(O)cc(O)cc2/C=C/c2ccc(O)cc2)[C@H](O)[C@@H](O)[C@@H]1O,308.15,ethanol,CCO,0.02325,0.40115875862928546,-0.39668372126569323,"2,3,5,4-tetrahydroxystilbene-2-o--d-glucoside",82373-94-2,5321884,No,10.1016/j.molliq.2018.02.046
OC[C@H]1O[C@@H](Oc2c(O)cc(O)cc2/C=C/c2ccc(O)cc2)[C@H](O)[C@@H](O)[C@@H]1O,313.15,ethanol,CCO,0.02813,0.4851363543431811,-0.31413617971519364,"2,3,5,4-tetrahydroxystilbene-2-o--d-glucoside",82373-94-2,5321884,No,10.1016/j.molliq.2018.02.046
OC[C@H]1O[C@@H](Oc2c(O)cc(O)cc2/C=C/c2ccc(O)cc2)[C@H](O)[C@@H](O)[C@@H]1O,318.15,ethanol,CCO,0.03258,0.5611648852843196,-0.2509095126336627,"2,3,5,4-tetrahydroxystilbene-2-o--d-glucoside",82373-94-2,5321884,No,10.1016/j.molliq.2018.02.046
Clc1ccccc1C(c1ccccc1)(c1ccccc1)n1ccnc1,293.2,ethanol,CCO,0.0154,0.26803674292664875,-0.5718056680737514,Clotrimazole,23593-75-1,2812,Yes,10.1016/j.molliq.2018.02.068
Clc1ccccc1C(c1ccccc1)(c1ccccc1)n1ccnc1,298.2,ethanol,CCO,0.0167,0.28943677507924664,-0.5384462893907371,Clotrimazole,23593-75-1,2812,Yes,10.1016/j.molliq.2018.02.068
Clc1ccccc1C(c1ccccc1)(c1ccccc1)n1ccnc1,303.2,ethanol,CCO,0.0216,0.37414243784577467,-0.4269630282975312,Clotrimazole,23593-75-1,2812,Yes,10.1016/j.molliq.2018.02.068
Clc1ccccc1C(c1ccccc1)(c1ccccc1)n1ccnc1,308.2,ethanol,CCO,0.025,0.432113507705691,-0.364402157594453,Clotrimazole,23593-75-1,2812,Yes,10.1016/j.molliq.2018.02.068
Clc1ccccc1C(c1ccccc1)(c1ccccc1)n1ccnc1,313.2,ethanol,CCO,0.031200000000000002,0.5396745568085547,-0.2678680564541809,Clotrimazole,23593-75-1,2812,Yes,10.1016/j.molliq.2018.02.068
O=c1[nH]c2ccccc2n1CCCN1CCC(n2c(=O)[nH]c3cc(Cl)ccc32)CC1,278.15,ethanol,CCO,8.55e-06,0.00014896291954613448,-3.8269218244779952,Domperidone,57808-66-9,3151,Yes,10.1016/j.molliq.2018.03.121
O=c1[nH]c2ccccc2n1CCCN1CCC(n2c(=O)[nH]c3cc(Cl)ccc32)CC1,283.15,ethanol,CCO,1.093e-05,0.0001892349147202179,-3.722998731193238,Domperidone,57808-66-9,3151,Yes,10.1016/j.molliq.2018.03.121
O=c1[nH]c2ccccc2n1CCCN1CCC(n2c(=O)[nH]c3cc(Cl)ccc32)CC1,288.15,ethanol,CCO,1.474e-05,0.000253823924133966,-3.595467445954116,Domperidone,57808-66-9,3151,Yes,10.1016/j.molliq.2018.03.121
O=c1[nH]c2ccccc2n1CCCN1CCC(n2c(=O)[nH]c3cc(Cl)ccc32)CC1,293.15,ethanol,CCO,1.863e-05,0.00031929476523631406,-3.495808201559581,Domperidone,57808-66-9,3151,Yes,10.1016/j.molliq.2018.03.121
O=c1[nH]c2ccccc2n1CCCN1CCC(n2c(=O)[nH]c3cc(Cl)ccc32)CC1,298.15,ethanol,CCO,2.278e-05,0.00038838487901231067,-3.4107376868210575,Domperidone,57808-66-9,3151,Yes,10.1016/j.molliq.2018.03.121
O=c1[nH]c2ccccc2n1CCCN1CCC(n2c(=O)[nH]c3cc(Cl)ccc32)CC1,303.15,ethanol,CCO,2.933e-05,0.00049717746832077,-3.3034885614577605,Domperidone,57808-66-9,3151,Yes,10.1016/j.molliq.2018.03.121
O=c1[nH]c2ccccc2n1CCCN1CCC(n2c(=O)[nH]c3cc(Cl)ccc32)CC1,308.15,ethanol,CCO,3.604e-05,0.0006074033403811708,-3.2165228240326353,Domperidone,57808-66-9,3151,Yes,10.1016/j.molliq.2018.03.121
O=c1[nH]c2ccccc2n1CCCN1CCC(n2c(=O)[nH]c3cc(Cl)ccc32)CC1,313.15,ethanol,CCO,4.533e-05,0.000759814663371579,-3.1192923294178954,Domperidone,57808-66-9,3151,Yes,10.1016/j.molliq.2018.03.121
O=c1[nH]c2ccccc2n1CCCN1CCC(n2c(=O)[nH]c3cc(Cl)ccc32)CC1,318.15,ethanol,CCO,5.35e-05,0.0008915208127758215,-3.0498685136572368,Domperidone,57808-66-9,3151,Yes,10.1016/j.molliq.2018.03.121
Cc1cccc(C)c1NC(=O)CN(C)C.Cl,291.15,ethanol,CCO,0.13,2.5665034725489493,0.40934185620941604,Lidocaine hydrochloride,31785-64-5,164186289,No,10.1016/j.molliq.2018.06.035
Cc1cccc(C)c1NC(=O)CN(C)C.Cl,296.15,ethanol,CCO,0.16,3.2535220972409253,0.5123537607170882,Lidocaine hydrochloride,31785-64-5,164186289,No,10.1016/j.molliq.2018.06.035
Cc1cccc(C)c1NC(=O)CN(C)C.Cl,301.15,ethanol,CCO,0.19,3.9844058110835,0.6003635648266786,Lidocaine hydrochloride,31785-64-5,164186289,No,10.1016/j.molliq.2018.06.035
Cc1cccc(C)c1NC(=O)CN(C)C.Cl,306.15,ethanol,CCO,0.23,5.045456582708222,0.7029004733238451,Lidocaine hydrochloride,31785-64-5,164186289,No,10.1016/j.molliq.2018.06.035
Cc1cccc(C)c1NC(=O)CN(C)C.Cl,311.15,ethanol,CCO,0.28,6.531961040514861,0.8150435857492796,Lidocaine hydrochloride,31785-64-5,164186289,No,10.1016/j.molliq.2018.06.035
Cc1cccc(C)c1NC(=O)CN(C)C.Cl,316.15,ethanol,CCO,0.33,8.226176623194299,0.9151980299549672,Lidocaine hydrochloride,31785-64-5,164186289,No,10.1016/j.molliq.2018.06.035
Cc1cccc(C)c1NC(=O)CN(C)C.Cl,321.15,ethanol,CCO,0.39,10.617456799739301,1.026020502610868,Lidocaine hydrochloride,31785-64-5,164186289,No,10.1016/j.molliq.2018.06.035
Cc1cccc(C)c1NC(=O)CN(C)C.Cl,326.15,ethanol,CCO,0.45,13.50977848655037,1.1306482281591492,Lidocaine hydrochloride,31785-64-5,164186289,No,10.1016/j.molliq.2018.06.035
Cc1cccc(C)c1NC(=O)CN(C)C.Cl,331.15,ethanol,CCO,0.53,18.512913038454094,1.2674747611076769,Lidocaine hydrochloride,31785-64-5,164186289,No,10.1016/j.molliq.2018.06.035
N[C@@H](Cc1ccccc1)C(=O)O,288.15,ethanol,CCO,8.9e-05,0.0015327006075365579,-2.814542670451064,L-phenylalanine,63-91-2,6140,No,10.1016/j.molliq.2018.07.019
N[C@@H](Cc1ccccc1)C(=O)O,293.15,ethanol,CCO,9.96e-05,0.0017071569437695402,-2.7677265511290146,L-phenylalanine,63-91-2,6140,No,10.1016/j.molliq.2018.07.019
N[C@@H](Cc1ccccc1)C(=O)O,298.15,ethanol,CCO,0.0001165,0.0019864389566597554,-2.7019247762885374,L-phenylalanine,63-91-2,6140,No,10.1016/j.molliq.2018.07.019
N[C@@H](Cc1ccccc1)C(=O)O,303.15,ethanol,CCO,0.00013440000000000001,0.002278475060754128,-2.6423557206633363,L-phenylalanine,63-91-2,6140,No,10.1016/j.molliq.2018.07.019
N[C@@H](Cc1ccccc1)C(=O)O,308.15,ethanol,CCO,0.0001605,0.002705337720997997,-2.567778511995242,L-phenylalanine,63-91-2,6140,No,10.1016/j.molliq.2018.07.019
Cc1cc(=O)n(-c2ccccc2)n1C,288.15,ethanol,CCO,0.14,2.8032269088783406,0.44765825340967874,Antipyrine,60-80-0,2206,Yes,10.1016/j.molliq.2018.07.061
Cc1cc(=O)n(-c2ccccc2)n1C,293.15,ethanol,CCO,0.17,3.51027936879385,0.545341681564811,Antipyrine,60-80-0,2206,Yes,10.1016/j.molliq.2018.07.061
Cc1cc(=O)n(-c2ccccc2)n1C,298.15,ethanol,CCO,0.19,3.9991462082238955,0.6019672821690566,Antipyrine,60-80-0,2206,Yes,10.1016/j.molliq.2018.07.061
Cc1cc(=O)n(-c2ccccc2)n1C,303.15,ethanol,CCO,0.22,4.780955656815779,0.6795147156494549,Antipyrine,60-80-0,2206,Yes,10.1016/j.molliq.2018.07.061
Cc1cc(=O)n(-c2ccccc2)n1C,308.15,ethanol,CCO,0.24,5.321994125516531,0.7260743908359708,Antipyrine,60-80-0,2206,Yes,10.1016/j.molliq.2018.07.061
Cc1cc(=O)n(-c2ccccc2)n1C,313.15,ethanol,CCO,0.28,6.51820176337748,0.8141277994192934,Antipyrine,60-80-0,2206,Yes,10.1016/j.molliq.2018.07.061
Cc1cc(=O)n(-c2ccccc2)n1C,318.15,ethanol,CCO,0.31,7.4862973340870855,0.8742670720422185,Antipyrine,60-80-0,2206,Yes,10.1016/j.molliq.2018.07.061