SMILES_Solute,Temperature_K,Solvent,SMILES_Solvent,Solubility(mole_fraction),Solubility(mol/L),LogS(mol/L),Compound_Name,CAS,PubChem_CID,FDA_Approved,Source
Nc1ccc(Oc2ccc(N)cc2)cc1,283.15,ethanol,CCO,0.000434,0.007517174194684518,-2.1239453857770894,"4,4′-oxydianiline",101-80-4,7579,No,10.1016/j.fluid.2013.07.010
Nc1ccc(Oc2ccc(N)cc2)cc1,288.15,ethanol,CCO,0.000549,0.009458875442316545,-2.024160493431975,"4,4′-oxydianiline",101-80-4,7579,No,10.1016/j.fluid.2013.07.010
Nc1ccc(Oc2ccc(N)cc2)cc1,293.15,ethanol,CCO,0.0007,0.012005299670176339,-1.9206269948339716,"4,4′-oxydianiline",101-80-4,7579,No,10.1016/j.fluid.2013.07.010
Nc1ccc(Oc2ccc(N)cc2)cc1,298.15,ethanol,CCO,0.00089,0.015187119175585252,-1.8185245990668635,"4,4′-oxydianiline",101-80-4,7579,No,10.1016/j.fluid.2013.07.010
Nc1ccc(Oc2ccc(N)cc2)cc1,303.15,ethanol,CCO,0.00113,0.01917591567524679,-1.7172438887499306,"4,4′-oxydianiline",101-80-4,7579,No,10.1016/j.fluid.2013.07.010
Nc1ccc(Oc2ccc(N)cc2)cc1,308.15,ethanol,CCO,0.001428,0.02410047291090252,-1.6179744354093504,"4,4′-oxydianiline",101-80-4,7579,No,10.1016/j.fluid.2013.07.010
Nc1ccc(Oc2ccc(N)cc2)cc1,313.15,ethanol,CCO,0.001764,0.029618810780897745,-1.5284323827379067,"4,4′-oxydianiline",101-80-4,7579,No,10.1016/j.fluid.2013.07.010
Nc1ccc(Oc2ccc(N)cc2)cc1,318.15,ethanol,CCO,0.002173,0.036287658351954126,-1.4402410559834231,"4,4′-oxydianiline",101-80-4,7579,No,10.1016/j.fluid.2013.07.010
Nc1ccc(Oc2ccc(N)cc2)cc1,323.15,ethanol,CCO,0.002704,0.044917149388343215,-1.3475878135013186,"4,4′-oxydianiline",101-80-4,7579,No,10.1016/j.fluid.2013.07.010
CC1(C)CCC2=C(O1)c1ccccc1C(=O)C2=O,298.15,ethanol,CCO,0.00499,0.0855011193170773,-1.0680281997741872,β-lapachone,4707-32-8,3885,No,10.1016/j.fluid.2018.05.005
CC1(C)CCC2=C(O1)c1ccccc1C(=O)C2=O,303.15,ethanol,CCO,0.00595,0.10146012045892165,-0.9937046264005,β-lapachone,4707-32-8,3885,No,10.1016/j.fluid.2018.05.005
CC1(C)CCC2=C(O1)c1ccccc1C(=O)C2=O,308.15,ethanol,CCO,0.00664,0.11265180446081406,-0.9482618473391924,β-lapachone,4707-32-8,3885,No,10.1016/j.fluid.2018.05.005
CC1(C)CCC2=C(O1)c1ccccc1C(=O)C2=O,313.15,ethanol,CCO,0.00909,0.15375595196389796,-0.8131680634872104,β-lapachone,4707-32-8,3885,No,10.1016/j.fluid.2018.05.005
CC1(C)CCC2=C(O1)c1ccccc1C(=O)C2=O,318.15,ethanol,CCO,0.0134,0.2263175099591598,-0.6452818438161135,β-lapachone,4707-32-8,3885,No,10.1016/j.fluid.2018.05.005
O=P([O-])([O-])OC[C@H]1O[C@@H](n2cnc3c(O)ncnc32)[C@H](O)[C@@H]1O.[Na+].[Na+],293.15,ethanol,CCO,0.000951,0.016314154844610455,-1.7874354199349043,Inosine-5′-monophosphate disodium,4691-65-0,135414245,No,10.1016/j.jct.2014.04.023
O=P([O-])([O-])OC[C@H]1O[C@@H](n2cnc3c(O)ncnc32)[C@H](O)[C@@H]1O.[Na+].[Na+],298.15,ethanol,CCO,0.001112,0.0189795841010542,-1.7217133084838665,Inosine-5′-monophosphate disodium,4691-65-0,135414245,No,10.1016/j.jct.2014.04.023
O=P([O-])([O-])OC[C@H]1O[C@@H](n2cnc3c(O)ncnc32)[C@H](O)[C@@H]1O.[Na+].[Na+],303.15,ethanol,CCO,0.001224,0.020773035216355554,-1.6825000426363852,Inosine-5′-monophosphate disodium,4691-65-0,135414245,No,10.1016/j.jct.2014.04.023
O=P([O-])([O-])OC[C@H]1O[C@@H](n2cnc3c(O)ncnc32)[C@H](O)[C@@H]1O.[Na+].[Na+],308.15,ethanol,CCO,0.001482,0.02501318797562896,-1.6018309531319301,Inosine-5′-monophosphate disodium,4691-65-0,135414245,No,10.1016/j.jct.2014.04.023
O=P([O-])([O-])OC[C@H]1O[C@@H](n2cnc3c(O)ncnc32)[C@H](O)[C@@H]1O.[Na+].[Na+],313.15,ethanol,CCO,0.00165,0.027701506395883358,-1.55749661354814,Inosine-5′-monophosphate disodium,4691-65-0,135414245,No,10.1016/j.jct.2014.04.023
Cn1c(=O)c2c(ncn2CCO)n(C)c1=O,313.9,ethanol,CCO,0.001,0.01676107036076159,-1.7756982508054209,7-(β-hydroxyethyl) theophylline,519-37-9,1892,No,10.1016/j.jct.2014.05.005
Cn1c(=O)c2c(ncn2CCO)n(C)c1=O,321.2,ethanol,CCO,0.0016,0.026611927893443684,-1.5749236619703872,7-(β-hydroxyethyl) theophylline,519-37-9,1892,No,10.1016/j.jct.2014.05.005
Cn1c(=O)c2c(ncn2CCO)n(C)c1=O,325.7,ethanol,CCO,0.0023,0.03808471512064898,-1.4192492886459642,7-(β-hydroxyethyl) theophylline,519-37-9,1892,No,10.1016/j.jct.2014.05.005
Cn1c(=O)c2c(ncn2CCO)n(C)c1=O,327.4,ethanol,CCO,0.0029,0.04795496977182665,-1.3191663784278809,7-(β-hydroxyethyl) theophylline,519-37-9,1892,No,10.1016/j.jct.2014.05.005
Cn1c(=O)c2c(ncn2CCO)n(C)c1=O,332.5,ethanol,CCO,0.004,0.06582933648068187,-1.1815805223077502,7-(β-hydroxyethyl) theophylline,519-37-9,1892,No,10.1016/j.jct.2014.05.005
Cn1c(=O)c2c(ncn2CCO)n(C)c1=O,336.8,ethanol,CCO,0.0055,0.0902007878162014,-1.0447896693013523,7-(β-hydroxyethyl) theophylline,519-37-9,1892,No,10.1016/j.jct.2014.05.005
Cn1c(=O)c2c(ncn2CCO)n(C)c1=O,339.1,ethanol,CCO,0.0065,0.10642280278856608,-0.9729653075276347,7-(β-hydroxyethyl) theophylline,519-37-9,1892,No,10.1016/j.jct.2014.05.005
Cn1c(=O)c2c(ncn2CCO)n(C)c1=O,339.7,ethanol,CCO,0.0068,0.11129033429430406,-0.9535425530501314,7-(β-hydroxyethyl) theophylline,519-37-9,1892,No,10.1016/j.jct.2014.05.005
Cn1c(=O)c2c(ncn2CCO)n(C)c1=O,342.4,ethanol,CCO,0.0077,0.1257368309950852,-0.900537489577457,7-(β-hydroxyethyl) theophylline,519-37-9,1892,No,10.1016/j.jct.2014.05.005
Cn1c(=O)c2c(ncn2CCO)n(C)c1=O,343.8,ethanol,CCO,0.0081,0.1321051004649186,-0.8790804143233448,7-(β-hydroxyethyl) theophylline,519-37-9,1892,No,10.1016/j.jct.2014.05.005
Cn1c(=O)c2c(ncn2CCO)n(C)c1=O,344.9,ethanol,CCO,0.0086,0.14014948083644901,-0.8534085066820255,7-(β-hydroxyethyl) theophylline,519-37-9,1892,No,10.1016/j.jct.2014.05.005
O=S(=O)(c1ccc(O)cc1)c1ccccc1O,278.15,ethanol,CCO,0.06546,1.2203557557824383,0.08648645383118475,"2,4′-dihydroxydiphenyl sulfone",5397-34-2,79381,No,10.1016/j.jct.2016.07.001
O=S(=O)(c1ccc(O)cc1)c1ccccc1O,280.65,ethanol,CCO,0.06723,1.2523139660638738,0.09771322395035374,"2,4′-dihydroxydiphenyl sulfone",5397-34-2,79381,No,10.1016/j.jct.2016.07.001
O=S(=O)(c1ccc(O)cc1)c1ccccc1O,283.15,ethanol,CCO,0.06886,1.2803490832432007,0.10732839484869632,"2,4′-dihydroxydiphenyl sulfone",5397-34-2,79381,No,10.1016/j.jct.2016.07.001
O=S(=O)(c1ccc(O)cc1)c1ccccc1O,285.65,ethanol,CCO,0.07057,1.3120520398610072,0.11795106078374568,"2,4′-dihydroxydiphenyl sulfone",5397-34-2,79381,No,10.1016/j.jct.2016.07.001
O=S(=O)(c1ccc(O)cc1)c1ccccc1O,288.15,ethanol,CCO,0.07247,1.3454233633899826,0.12885896497250754,"2,4′-dihydroxydiphenyl sulfone",5397-34-2,79381,No,10.1016/j.jct.2016.07.001
O=S(=O)(c1ccc(O)cc1)c1ccccc1O,290.65,ethanol,CCO,0.07455,1.3843700119601454,0.14125218309443255,"2,4′-dihydroxydiphenyl sulfone",5397-34-2,79381,No,10.1016/j.jct.2016.07.001
O=S(=O)(c1ccc(O)cc1)c1ccccc1O,293.15,ethanol,CCO,0.07655,1.4207009208777215,0.15250266196459814,"2,4′-dihydroxydiphenyl sulfone",5397-34-2,79381,No,10.1016/j.jct.2016.07.001
O=S(=O)(c1ccc(O)cc1)c1ccccc1O,295.65,ethanol,CCO,0.07848,1.4554871063096413,0.16300836251727077,"2,4′-dihydroxydiphenyl sulfone",5397-34-2,79381,No,10.1016/j.jct.2016.07.001
O=S(=O)(c1ccc(O)cc1)c1ccccc1O,298.15,ethanol,CCO,0.08049,1.492396324489488,0.17388417077893675,"2,4′-dihydroxydiphenyl sulfone",5397-34-2,79381,No,10.1016/j.jct.2016.07.001
O=S(=O)(c1ccc(O)cc1)c1ccccc1O,300.65,ethanol,CCO,0.08267,1.531650716956034,0.18515973853845344,"2,4′-dihydroxydiphenyl sulfone",5397-34-2,79381,No,10.1016/j.jct.2016.07.001
O=S(=O)(c1ccc(O)cc1)c1ccccc1O,303.15,ethanol,CCO,0.08499,1.5744491048421878,0.19712862632953645,"2,4′-dihydroxydiphenyl sulfone",5397-34-2,79381,No,10.1016/j.jct.2016.07.001
O=S(=O)(c1ccc(O)cc1)c1ccccc1O,305.65,ethanol,CCO,0.08724,1.6153483607801662,0.20826619530482096,"2,4′-dihydroxydiphenyl sulfone",5397-34-2,79381,No,10.1016/j.jct.2016.07.001
O=S(=O)(c1ccc(O)cc1)c1ccccc1O,308.15,ethanol,CCO,0.08984,1.6635227308919491,0.22102873958025193,"2,4′-dihydroxydiphenyl sulfone",5397-34-2,79381,No,10.1016/j.jct.2016.07.001
O=S(=O)(c1ccc(O)cc1)c1ccccc1O,310.65,ethanol,CCO,0.09283,1.7197403186290057,0.23546287324428172,"2,4′-dihydroxydiphenyl sulfone",5397-34-2,79381,No,10.1016/j.jct.2016.07.001
O=S(=O)(c1ccc(O)cc1)c1ccccc1O,313.15,ethanol,CCO,0.09569,1.7735828708038859,0.248851485727048,"2,4′-dihydroxydiphenyl sulfone",5397-34-2,79381,No,10.1016/j.jct.2016.07.001
O=P1(O)Oc2ccc3ccccc3c2-c2c(ccc3ccccc23)O1,288.15,ethanol,CCO,0.004444,0.07686648558642895,-1.1142629748603836,"1,1′-binaphthyl-2,2′-diyl hydrogenphosphate",35193-63-6,99589,No,10.1016/j.jct.2019.105905
O=P1(O)Oc2ccc3ccccc3c2-c2c(ccc3ccccc23)O1,293.15,ethanol,CCO,0.004625,0.07963351043846842,-1.0989041390966492,"1,1′-binaphthyl-2,2′-diyl hydrogenphosphate",35193-63-6,99589,No,10.1016/j.jct.2019.105905
O=P1(O)Oc2ccc3ccccc3c2-c2c(ccc3ccccc23)O1,298.15,ethanol,CCO,0.004888,0.08374481623701234,-1.0770420660742355,"1,1′-binaphthyl-2,2′-diyl hydrogenphosphate",35193-63-6,99589,No,10.1016/j.jct.2019.105905
O=P1(O)Oc2ccc3ccccc3c2-c2c(ccc3ccccc23)O1,303.15,ethanol,CCO,0.005112,0.08709701881363423,-1.0599967099170884,"1,1′-binaphthyl-2,2′-diyl hydrogenphosphate",35193-63-6,99589,No,10.1016/j.jct.2019.105905
O=P1(O)Oc2ccc3ccccc3c2-c2c(ccc3ccccc23)O1,308.15,ethanol,CCO,0.005328,0.09027366296197632,-1.0444389351640644,"1,1′-binaphthyl-2,2′-diyl hydrogenphosphate",35193-63-6,99589,No,10.1016/j.jct.2019.105905
O=P1(O)Oc2ccc3ccccc3c2-c2c(ccc3ccccc23)O1,313.15,ethanol,CCO,0.005436,0.09161128554004704,-1.038051022556337,"1,1′-binaphthyl-2,2′-diyl hydrogenphosphate",35193-63-6,99589,No,10.1016/j.jct.2019.105905
O=P1(O)Oc2ccc3ccccc3c2-c2c(ccc3ccccc23)O1,318.15,ethanol,CCO,0.005725,0.09594524148809194,-1.017976559716529,"1,1′-binaphthyl-2,2′-diyl hydrogenphosphate",35193-63-6,99589,No,10.1016/j.jct.2019.105905
O=P1(O)Oc2ccc3ccccc3c2-c2c(ccc3ccccc23)O1,323.15,ethanol,CCO,0.006013,0.10021669489200546,-0.999059924222091,"1,1′-binaphthyl-2,2′-diyl hydrogenphosphate",35193-63-6,99589,No,10.1016/j.jct.2019.105905
O=P1(O)Oc2ccc3ccccc3c2-c2c(ccc3ccccc23)O1,328.15,ethanol,CCO,0.00632,0.10473083897045189,-0.9799254174364792,"1,1′-binaphthyl-2,2′-diyl hydrogenphosphate",35193-63-6,99589,No,10.1016/j.jct.2019.105905
O=P1(O)Oc2ccc3ccccc3c2-c2c(ccc3ccccc23)O1,333.15,ethanol,CCO,0.006639,0.10944311807306882,-0.9608115422445959,"1,1′-binaphthyl-2,2′-diyl hydrogenphosphate",35193-63-6,99589,No,10.1016/j.jct.2019.105905
CNC[C@H](O)c1cccc(O)c1.Cl,278.15,ethanol,CCO,0.01385,0.24468939204442788,-0.6113848580958214,(R)-(−)-phenylephrine hydrochloride,61-76-7,5284443,Yes,10.1016/j.jct.2019.105959
CNC[C@H](O)c1cccc(O)c1.Cl,283.15,ethanol,CCO,0.01676,0.29511469552409975,-0.5300091638442662,(R)-(−)-phenylephrine hydrochloride,61-76-7,5284443,Yes,10.1016/j.jct.2019.105959
CNC[C@H](O)c1cccc(O)c1.Cl,288.15,ethanol,CCO,0.01952,0.34282283578831996,-0.4649302569747909,(R)-(−)-phenylephrine hydrochloride,61-76-7,5284443,Yes,10.1016/j.jct.2019.105959
CNC[C@H](O)c1cccc(O)c1.Cl,293.15,ethanol,CCO,0.02327,0.4083125311698596,-0.389007291312835,(R)-(−)-phenylephrine hydrochloride,61-76-7,5284443,Yes,10.1016/j.jct.2019.105959
CNC[C@H](O)c1cccc(O)c1.Cl,298.15,ethanol,CCO,0.02869,0.5035833798971128,-0.2979286116421771,(R)-(−)-phenylephrine hydrochloride,61-76-7,5284443,Yes,10.1016/j.jct.2019.105959
CNC[C@H](O)c1cccc(O)c1.Cl,303.15,ethanol,CCO,0.03403,0.597152077850733,-0.22391505218624852,(R)-(−)-phenylephrine hydrochloride,61-76-7,5284443,Yes,10.1016/j.jct.2019.105959
CNC[C@H](O)c1cccc(O)c1.Cl,308.15,ethanol,CCO,0.0404,0.7095252693390458,-0.14903213278003183,(R)-(−)-phenylephrine hydrochloride,61-76-7,5284443,Yes,10.1016/j.jct.2019.105959
CNC[C@H](O)c1cccc(O)c1.Cl,313.15,ethanol,CCO,0.04701,0.8268070521103885,-0.0825958277878963,(R)-(−)-phenylephrine hydrochloride,61-76-7,5284443,Yes,10.1016/j.jct.2019.105959
CNC[C@H](O)c1cccc(O)c1.Cl,318.15,ethanol,CCO,0.05535,0.9763401861921447,-0.010398834746849411,(R)-(−)-phenylephrine hydrochloride,61-76-7,5284443,Yes,10.1016/j.jct.2019.105959
CNC[C@H](O)c1cccc(O)c1.Cl,323.15,ethanol,CCO,0.06543,1.1598308620917464,0.06439466076486057,(R)-(−)-phenylephrine hydrochloride,61-76-7,5284443,Yes,10.1016/j.jct.2019.105959
O=c1[nH]c(=O)n(C2CCCO2)cc1F,273.15,ethanol,CCO,0.001183,0.020747456489428467,-1.6830351375212231,β tegafur,17902-23-7,5386,Yes,10.1016/j.jct.2020.106090
O=c1[nH]c(=O)n(C2CCCO2)cc1F,278.15,ethanol,CCO,0.001521,0.026539859926238477,-1.5761013736125864,β tegafur,17902-23-7,5386,Yes,10.1016/j.jct.2020.106090
O=c1[nH]c(=O)n(C2CCCO2)cc1F,283.15,ethanol,CCO,0.001983,0.03440021327862188,-1.4634388648284276,β tegafur,17902-23-7,5386,Yes,10.1016/j.jct.2020.106090
O=c1[nH]c(=O)n(C2CCCO2)cc1F,288.15,ethanol,CCO,0.002533,0.043728574720928115,-1.3592346777185687,β tegafur,17902-23-7,5386,Yes,10.1016/j.jct.2020.106090
O=c1[nH]c(=O)n(C2CCCO2)cc1F,293.15,ethanol,CCO,0.00318,0.0546740479784213,-1.2622187704543484,β tegafur,17902-23-7,5386,Yes,10.1016/j.jct.2020.106090
O=c1[nH]c(=O)n(C2CCCO2)cc1F,298.15,ethanol,CCO,0.004022,0.06884795119695612,-1.1621089791121497,β tegafur,17902-23-7,5386,Yes,10.1016/j.jct.2020.106090
O=c1[nH]c(=O)n(C2CCCO2)cc1F,303.15,ethanol,CCO,0.005061,0.08622367315407294,-1.064373480014189,β tegafur,17902-23-7,5386,Yes,10.1016/j.jct.2020.106090
O=c1[nH]c(=O)n(C2CCCO2)cc1F,308.15,ethanol,CCO,0.006289,0.1066591795891186,-0.9720017611865098,β tegafur,17902-23-7,5386,Yes,10.1016/j.jct.2020.106090
O=c1[nH]c(=O)n(C2CCCO2)cc1F,313.15,ethanol,CCO,0.007669,0.12953419888844026,-0.8876155564650279,β tegafur,17902-23-7,5386,Yes,10.1016/j.jct.2020.106090
CC1(C)[C@@H](O)CC[C@]2(C)[C@H]3C(=O)C=C4[C@@H]5C[C@@](C)(C(=O)O)CC[C@]5(C)CC[C@@]4(C)[C@]3(C)CC[C@@H]12,278.15,ethanol,CCO,0.01086,0.19128477660575746,-0.7183195919130799,18β-glycyrrhetinic acid,471-53-4,10114,No,10.1016/j.jct.2023.107090
CC1(C)[C@@H](O)CC[C@]2(C)[C@H]3C(=O)C=C4[C@@H]5C[C@@](C)(C(=O)O)CC[C@]5(C)CC[C@@]4(C)[C@]3(C)CC[C@@H]12,283.15,ethanol,CCO,0.01148,0.20106329134884282,-0.6966672124458574,18β-glycyrrhetinic acid,471-53-4,10114,No,10.1016/j.jct.2023.107090
CC1(C)[C@@H](O)CC[C@]2(C)[C@H]3C(=O)C=C4[C@@H]5C[C@@](C)(C(=O)O)CC[C@]5(C)CC[C@@]4(C)[C@]3(C)CC[C@@H]12,288.15,ethanol,CCO,0.01212,0.21126477707399918,-0.6751729042611136,18β-glycyrrhetinic acid,471-53-4,10114,No,10.1016/j.jct.2023.107090
CC1(C)[C@@H](O)CC[C@]2(C)[C@H]3C(=O)C=C4[C@@H]5C[C@@](C)(C(=O)O)CC[C@]5(C)CC[C@@]4(C)[C@]3(C)CC[C@@H]12,293.15,ethanol,CCO,0.01277,0.22168862287757535,-0.6542565944284713,18β-glycyrrhetinic acid,471-53-4,10114,No,10.1016/j.jct.2023.107090
CC1(C)[C@@H](O)CC[C@]2(C)[C@H]3C(=O)C=C4[C@@H]5C[C@@](C)(C(=O)O)CC[C@]5(C)CC[C@@]4(C)[C@]3(C)CC[C@@H]12,298.15,ethanol,CCO,0.01341,0.23173453926815854,-0.6350092312266471,18β-glycyrrhetinic acid,471-53-4,10114,No,10.1016/j.jct.2023.107090
CC1(C)[C@@H](O)CC[C@]2(C)[C@H]3C(=O)C=C4[C@@H]5C[C@@](C)(C(=O)O)CC[C@]5(C)CC[C@@]4(C)[C@]3(C)CC[C@@H]12,303.15,ethanol,CCO,0.01408,0.24207370414257115,-0.6160523843130241,18β-glycyrrhetinic acid,471-53-4,10114,No,10.1016/j.jct.2023.107090
CC1(C)[C@@H](O)CC[C@]2(C)[C@H]3C(=O)C=C4[C@@H]5C[C@@](C)(C(=O)O)CC[C@]5(C)CC[C@@]4(C)[C@]3(C)CC[C@@H]12,308.15,ethanol,CCO,0.01473,0.25195572379623715,-0.5986757711249006,18β-glycyrrhetinic acid,471-53-4,10114,No,10.1016/j.jct.2023.107090
CC1(C)[C@@H](O)CC[C@]2(C)[C@H]3C(=O)C=C4[C@@H]5C[C@@](C)(C(=O)O)CC[C@]5(C)CC[C@@]4(C)[C@]3(C)CC[C@@H]12,313.15,ethanol,CCO,0.01553,0.2644059560596841,-0.5777287660747469,18β-glycyrrhetinic acid,471-53-4,10114,No,10.1016/j.jct.2023.107090
CC1(C)[C@@H](O)CC[C@]2(C)[C@H]3C(=O)C=C4[C@@H]5C[C@@](C)(C(=O)O)CC[C@]5(C)CC[C@@]4(C)[C@]3(C)CC[C@@H]12,318.15,ethanol,CCO,0.01632,0.2764526656311253,-0.5583792181205888,18β-glycyrrhetinic acid,471-53-4,10114,No,10.1016/j.jct.2023.107090
CC1(C)[C@@H](O)CC[C@]2(C)[C@H]3C(=O)C=C4[C@@H]5C[C@@](C)(C(=O)O)CC[C@]5(C)CC[C@@]4(C)[C@]3(C)CC[C@@H]12,323.15,ethanol,CCO,0.01722,0.29027284778439416,-0.5371935863140662,18β-glycyrrhetinic acid,471-53-4,10114,No,10.1016/j.jct.2023.107090
CN(Cc1ccccc1)CN1C(=O)C(=NNC(=O)c2ccccc2OCc2ccccc2)c2ccccc21,298.15,ethanol,CCO,0.00047400000000000003,0.008085054395707156,-2.0923170538434195,N′-(1-(n-(methyl) benzylaminomethyl)-2-oxoindolin-3-ylidene)-2-(benzyloxy) benzohydrazide,1884472-26-7,137175079,No,10.1016/j.molliq.2016.04.068
CN(Cc1ccccc1)CN1C(=O)C(=NNC(=O)c2ccccc2OCc2ccccc2)c2ccccc21,303.15,ethanol,CCO,0.000583,0.009888000046665422,-2.00489154020565,N′-(1-(n-(methyl) benzylaminomethyl)-2-oxoindolin-3-ylidene)-2-(benzyloxy) benzohydrazide,1884472-26-7,137175079,No,10.1016/j.molliq.2016.04.068
CN(Cc1ccccc1)CN1C(=O)C(=NNC(=O)c2ccccc2OCc2ccccc2)c2ccccc21,308.15,ethanol,CCO,0.000715,0.012058503529213735,-1.9187065851751604,N′-(1-(n-(methyl) benzylaminomethyl)-2-oxoindolin-3-ylidene)-2-(benzyloxy) benzohydrazide,1884472-26-7,137175079,No,10.1016/j.molliq.2016.04.068
CN(Cc1ccccc1)CN1C(=O)C(=NNC(=O)c2ccccc2OCc2ccccc2)c2ccccc21,313.15,ethanol,CCO,0.0008320000000000001,0.01395683917710122,-1.855212925794032,N′-(1-(n-(methyl) benzylaminomethyl)-2-oxoindolin-3-ylidene)-2-(benzyloxy) benzohydrazide,1884472-26-7,137175079,No,10.1016/j.molliq.2016.04.068
CN(Cc1ccccc1)CN1C(=O)C(=NNC(=O)c2ccccc2OCc2ccccc2)c2ccccc21,318.15,ethanol,CCO,0.0009689999999999999,0.016162155517548005,-1.7915007186264682,N′-(1-(n-(methyl) benzylaminomethyl)-2-oxoindolin-3-ylidene)-2-(benzyloxy) benzohydrazide,1884472-26-7,137175079,No,10.1016/j.molliq.2016.04.068
Cc1ccc(-c2ccccc2C#N)cc1,268.05,ethanol,CCO,0.014199999999999999,0.25372152304470913,-0.5956426902750169,2-cyano-4′-methylbiphenyl,114772-53-1,145512,No,10.1016/j.molliq.2017.04.049
Cc1ccc(-c2ccccc2C#N)cc1,272.97,ethanol,CCO,0.0159,0.28307960092634704,-0.548091425316347,2-cyano-4′-methylbiphenyl,114772-53-1,145512,No,10.1016/j.molliq.2017.04.049
Cc1ccc(-c2ccccc2C#N)cc1,278.05,ethanol,CCO,0.0168,0.29773030270733125,-0.5261769610239617,2-cyano-4′-methylbiphenyl,114772-53-1,145512,No,10.1016/j.molliq.2017.04.049
Cc1ccc(-c2ccccc2C#N)cc1,283.15,ethanol,CCO,0.020499999999999997,0.36234792671945976,-0.44087421928257076,2-cyano-4′-methylbiphenyl,114772-53-1,145512,No,10.1016/j.molliq.2017.04.049
Cc1ccc(-c2ccccc2C#N)cc1,288.15,ethanol,CCO,0.028399999999999998,0.5033377493857303,-0.2981404971110469,2-cyano-4′-methylbiphenyl,114772-53-1,145512,No,10.1016/j.molliq.2017.04.049
Cc1ccc(-c2ccccc2C#N)cc1,293.15,ethanol,CCO,0.040999999999999995,0.7327167203585517,-0.13506389788831724,2-cyano-4′-methylbiphenyl,114772-53-1,145512,No,10.1016/j.molliq.2017.04.049
Cc1ccc(-c2ccccc2C#N)cc1,298.13,ethanol,CCO,0.0604,1.095597528591795,0.03965104391766988,2-cyano-4′-methylbiphenyl,114772-53-1,145512,No,10.1016/j.molliq.2017.04.049
Cc1ccc(-c2ccccc2C#N)cc1,303.05,ethanol,CCO,0.0958,1.795864545311252,0.25427357651705207,2-cyano-4′-methylbiphenyl,114772-53-1,145512,No,10.1016/j.molliq.2017.04.049
OC[C@H]1O[C@@H](Oc2c(O)cc(O)cc2/C=C/c2ccc(O)cc2)[C@H](O)[C@@H](O)[C@@H]1O,278.15,ethanol,CCO,0.00757,0.13289368467400148,-0.8764956569534351,"2,3,5,4′-tetrahydroxystilbene-2-o-β-d-glucoside",82373-94-2,5321884,No,10.1016/j.molliq.2018.02.046
OC[C@H]1O[C@@H](Oc2c(O)cc(O)cc2/C=C/c2ccc(O)cc2)[C@H](O)[C@@H](O)[C@@H]1O,283.15,ethanol,CCO,0.00881,0.1538846696514967,-0.8128046434393897,"2,3,5,4′-tetrahydroxystilbene-2-o-β-d-glucoside",82373-94-2,5321884,No,10.1016/j.molliq.2018.02.046
OC[C@H]1O[C@@H](Oc2c(O)cc(O)cc2/C=C/c2ccc(O)cc2)[C@H](O)[C@@H](O)[C@@H]1O,288.15,ethanol,CCO,0.01083,0.18853248382779134,-0.7246138108070593,"2,3,5,4′-tetrahydroxystilbene-2-o-β-d-glucoside",82373-94-2,5321884,No,10.1016/j.molliq.2018.02.046
OC[C@H]1O[C@@H](Oc2c(O)cc(O)cc2/C=C/c2ccc(O)cc2)[C@H](O)[C@@H](O)[C@@H]1O,293.15,ethanol,CCO,0.013640000000000001,0.23700077760648736,-0.6252502290546534,"2,3,5,4′-tetrahydroxystilbene-2-o-β-d-glucoside",82373-94-2,5321884,No,10.1016/j.molliq.2018.02.046
OC[C@H]1O[C@@H](Oc2c(O)cc(O)cc2/C=C/c2ccc(O)cc2)[C@H](O)[C@@H](O)[C@@H]1O,298.15,ethanol,CCO,0.0159,0.27545876283280774,-0.5599434073915807,"2,3,5,4′-tetrahydroxystilbene-2-o-β-d-glucoside",82373-94-2,5321884,No,10.1016/j.molliq.2018.02.046
OC[C@H]1O[C@@H](Oc2c(O)cc(O)cc2/C=C/c2ccc(O)cc2)[C@H](O)[C@@H](O)[C@@H]1O,303.15,ethanol,CCO,0.01989,0.3439906200276749,-0.46345339965452026,"2,3,5,4′-tetrahydroxystilbene-2-o-β-d-glucoside",82373-94-2,5321884,No,10.1016/j.molliq.2018.02.046
OC[C@H]1O[C@@H](Oc2c(O)cc(O)cc2/C=C/c2ccc(O)cc2)[C@H](O)[C@@H](O)[C@@H]1O,308.15,ethanol,CCO,0.02325,0.40115875862928546,-0.39668372126569323,"2,3,5,4′-tetrahydroxystilbene-2-o-β-d-glucoside",82373-94-2,5321884,No,10.1016/j.molliq.2018.02.046