SMILES_Solute,Temperature_K,Solvent,SMILES_Solvent,Solubility(mole_fraction),Solubility(mol/L),LogS(mol/L),Compound_Name,CAS,PubChem_CID,FDA_Approved,Source
Cc1c(C(=O)O)cccc1[N+](=O)[O-],293.15,ethanol,CCO,0.02322,0.40741433836637514,-0.38996369069221587,2-methyl-3-nitrobenzoic acid,1975-50-4,16096,No,10.1016/j.jct.2017.02.017
Cc1c(C(=O)O)cccc1[N+](=O)[O-],295.65,ethanol,CCO,0.025910000000000002,0.45459270428621845,-0.3423775385047174,2-methyl-3-nitrobenzoic acid,1975-50-4,16096,No,10.1016/j.jct.2017.02.017
Cc1c(C(=O)O)cccc1[N+](=O)[O-],298.15,ethanol,CCO,0.0286,0.5019571376077651,-0.299333365913097,2-methyl-3-nitrobenzoic acid,1975-50-4,16096,No,10.1016/j.jct.2017.02.017
Cc1c(C(=O)O)cccc1[N+](=O)[O-],300.65,ethanol,CCO,0.03167,0.5558557134759986,-0.25503792599591435,2-methyl-3-nitrobenzoic acid,1975-50-4,16096,No,10.1016/j.jct.2017.02.017
Cc1c(C(=O)O)cccc1[N+](=O)[O-],303.15,ethanol,CCO,0.035089999999999996,0.6164291936703434,-0.21011680157317417,2-methyl-3-nitrobenzoic acid,1975-50-4,16096,No,10.1016/j.jct.2017.02.017
Cc1c(C(=O)O)cccc1[N+](=O)[O-],305.65,ethanol,CCO,0.03878,0.681855180205299,-0.16630785571938242,2-methyl-3-nitrobenzoic acid,1975-50-4,16096,No,10.1016/j.jct.2017.02.017
Cc1c(C(=O)O)cccc1[N+](=O)[O-],308.15,ethanol,CCO,0.04305,0.7581596208381222,-0.12023934957744212,2-methyl-3-nitrobenzoic acid,1975-50-4,16096,No,10.1016/j.jct.2017.02.017
Cc1c(C(=O)O)cccc1[N+](=O)[O-],310.65,ethanol,CCO,0.04754,0.8388332445135607,-0.07632436597172874,2-methyl-3-nitrobenzoic acid,1975-50-4,16096,No,10.1016/j.jct.2017.02.017
Cc1c(C(=O)O)cccc1[N+](=O)[O-],313.15,ethanol,CCO,0.05241,0.9270346246093542,-0.03290404471639072,2-methyl-3-nitrobenzoic acid,1975-50-4,16096,No,10.1016/j.jct.2017.02.017
Cc1c(C(=O)O)cccc1[N+](=O)[O-],315.65,ethanol,CCO,0.05787,1.0264743118809327,0.011348085369586291,2-methyl-3-nitrobenzoic acid,1975-50-4,16096,No,10.1016/j.jct.2017.02.017
Cc1c(C(=O)O)cccc1[N+](=O)[O-],318.15,ethanol,CCO,0.06401,1.139543969917279,0.05673108732598331,2-methyl-3-nitrobenzoic acid,1975-50-4,16096,No,10.1016/j.jct.2017.02.017
Clc1ccc(COC(Cn2ccnc2)c2ccc(Cl)cc2Cl)cc1.O=[N+]([O-])O,278.15,ethanol,CCO,0.0005256,0.009162036746860747,-2.038007970699332,Econazole nitrate,24169-02-6,68589,Yes,10.1016/j.jct.2017.03.038
Clc1ccc(COC(Cn2ccnc2)c2ccc(Cl)cc2Cl)cc1.O=[N+]([O-])O,283.15,ethanol,CCO,0.0006561,0.01136662237210246,-1.9443685681250207,Econazole nitrate,24169-02-6,68589,Yes,10.1016/j.jct.2017.03.038
Clc1ccc(COC(Cn2ccnc2)c2ccc(Cl)cc2Cl)cc1.O=[N+]([O-])O,288.15,ethanol,CCO,0.0008319,0.01433709731930612,-1.8435387667861751,Econazole nitrate,24169-02-6,68589,Yes,10.1016/j.jct.2017.03.038
Clc1ccc(COC(Cn2ccnc2)c2ccc(Cl)cc2Cl)cc1.O=[N+]([O-])O,293.15,ethanol,CCO,0.001015,0.017413173513706876,-1.7591220724270165,Econazole nitrate,24169-02-6,68589,Yes,10.1016/j.jct.2017.03.038
Clc1ccc(COC(Cn2ccnc2)c2ccc(Cl)cc2Cl)cc1.O=[N+]([O-])O,298.15,ethanol,CCO,0.001246,0.021269545549080726,-1.6722417892526544,Econazole nitrate,24169-02-6,68589,Yes,10.1016/j.jct.2017.03.038
Clc1ccc(COC(Cn2ccnc2)c2ccc(Cl)cc2Cl)cc1.O=[N+]([O-])O,303.15,ethanol,CCO,0.001533,0.026025259983012597,-1.584604923349653,Econazole nitrate,24169-02-6,68589,Yes,10.1016/j.jct.2017.03.038
Clc1ccc(COC(Cn2ccnc2)c2ccc(Cl)cc2Cl)cc1.O=[N+]([O-])O,308.15,ethanol,CCO,0.001886,0.03184478217480825,-1.4969617174362675,Econazole nitrate,24169-02-6,68589,Yes,10.1016/j.jct.2017.03.038
Clc1ccc(COC(Cn2ccnc2)c2ccc(Cl)cc2Cl)cc1.O=[N+]([O-])O,313.15,ethanol,CCO,0.002277,0.03825210253372491,-1.41734468877966,Econazole nitrate,24169-02-6,68589,Yes,10.1016/j.jct.2017.03.038
Clc1ccc(COC(Cn2ccnc2)c2ccc(Cl)cc2Cl)cc1.O=[N+]([O-])O,318.15,ethanol,CCO,0.002751,0.045966501382693356,-1.337558550154689,Econazole nitrate,24169-02-6,68589,Yes,10.1016/j.jct.2017.03.038
O=C(Nc1ccccc1-c1ccc(Cl)cc1)c1cccnc1Cl,288.15,ethanol,CCO,0.001635,0.02820051753598444,-1.5497429214338379,Boscalid,188425-85-6,213013,No,10.1016/j.jct.2017.04.017
O=C(Nc1ccccc1-c1ccc(Cl)cc1)c1cccnc1Cl,293.15,ethanol,CCO,0.001936,0.03324434759887767,-1.4782821854073576,Boscalid,188425-85-6,213013,No,10.1016/j.jct.2017.04.017
O=C(Nc1ccccc1-c1ccc(Cl)cc1)c1cccnc1Cl,298.15,ethanol,CCO,0.002304,0.039371589086707154,-1.4048170561861304,Boscalid,188425-85-6,213013,No,10.1016/j.jct.2017.04.017
O=C(Nc1ccccc1-c1ccc(Cl)cc1)c1cccnc1Cl,303.15,ethanol,CCO,0.002821,0.047953090250069566,-1.31918340027,Boscalid,188425-85-6,213013,No,10.1016/j.jct.2017.04.017
O=C(Nc1ccccc1-c1ccc(Cl)cc1)c1cccnc1Cl,308.15,ethanol,CCO,0.003464,0.05858165441171484,-1.2322383675172948,Boscalid,188425-85-6,213013,No,10.1016/j.jct.2017.04.017
O=C(Nc1ccccc1-c1ccc(Cl)cc1)c1cccnc1Cl,313.15,ethanol,CCO,0.004282,0.07207963343523861,-1.1421874306507738,Boscalid,188425-85-6,213013,No,10.1016/j.jct.2017.04.017
c1ccc(-c2nnn[nH]2)cc1,283.15,ethanol,CCO,0.01481,0.2602623959584638,-0.5845885764450833,5-phenyltetrazole,18039-42-4,87425,No,10.1016/j.jct.2017.04.019
c1ccc(-c2nnn[nH]2)cc1,285.65,ethanol,CCO,0.01562,0.27419900717009243,-0.5619341220531835,5-phenyltetrazole,18039-42-4,87425,No,10.1016/j.jct.2017.04.019
c1ccc(-c2nnn[nH]2)cc1,288.15,ethanol,CCO,0.0164,0.2871137535788367,-0.5419460030439731,5-phenyltetrazole,18039-42-4,87425,No,10.1016/j.jct.2017.04.019
c1ccc(-c2nnn[nH]2)cc1,290.65,ethanol,CCO,0.01723,0.30129427652135815,-0.5210091182396884,5-phenyltetrazole,18039-42-4,87425,No,10.1016/j.jct.2017.04.019
c1ccc(-c2nnn[nH]2)cc1,293.15,ethanol,CCO,0.0181,0.3159236711381296,-0.5004178325958714,5-phenyltetrazole,18039-42-4,87425,No,10.1016/j.jct.2017.04.019
c1ccc(-c2nnn[nH]2)cc1,295.65,ethanol,CCO,0.01898,0.3306530096735352,-0.4806275199019019,5-phenyltetrazole,18039-42-4,87425,No,10.1016/j.jct.2017.04.019
c1ccc(-c2nnn[nH]2)cc1,298.15,ethanol,CCO,0.01998,0.3475835745814741,-0.45894075476990676,5-phenyltetrazole,18039-42-4,87425,No,10.1016/j.jct.2017.04.019
c1ccc(-c2nnn[nH]2)cc1,300.65,ethanol,CCO,0.02095,0.36367760069131866,-0.4392834468026667,5-phenyltetrazole,18039-42-4,87425,No,10.1016/j.jct.2017.04.019
c1ccc(-c2nnn[nH]2)cc1,303.15,ethanol,CCO,0.02196,0.38059436709442135,-0.4195376436840826,5-phenyltetrazole,18039-42-4,87425,No,10.1016/j.jct.2017.04.019
c1ccc(-c2nnn[nH]2)cc1,305.65,ethanol,CCO,0.02299,0.39769222498807116,-0.4004528995289416,5-phenyltetrazole,18039-42-4,87425,No,10.1016/j.jct.2017.04.019
c1ccc(-c2nnn[nH]2)cc1,308.15,ethanol,CCO,0.02407,0.4156561046766461,-0.3812658366996498,5-phenyltetrazole,18039-42-4,87425,No,10.1016/j.jct.2017.04.019
c1ccc(-c2nnn[nH]2)cc1,310.65,ethanol,CCO,0.02526,0.4355196558477466,-0.3609922396607317,5-phenyltetrazole,18039-42-4,87425,No,10.1016/j.jct.2017.04.019
c1ccc(-c2nnn[nH]2)cc1,313.15,ethanol,CCO,0.02643,0.4550218425719188,-0.3419677552532859,5-phenyltetrazole,18039-42-4,87425,No,10.1016/j.jct.2017.04.019
c1ccc(-c2nnn[nH]2)cc1,315.65,ethanol,CCO,0.02766,0.47537841670171727,-0.32296054015123754,5-phenyltetrazole,18039-42-4,87425,No,10.1016/j.jct.2017.04.019
c1ccc(-c2nnn[nH]2)cc1,318.15,ethanol,CCO,0.02894,0.4966002464398777,-0.30399306926101055,5-phenyltetrazole,18039-42-4,87425,No,10.1016/j.jct.2017.04.019
Brc1cn[nH]c1,283.15,ethanol,CCO,0.2646,6.22934772853431,0.7944425743110687,4-bromopyrazole,2075-45-8,16375,No,10.1016/j.jct.2017.05.005
Brc1cn[nH]c1,285.65,ethanol,CCO,0.2754,6.567698929476702,0.8174132360322396,4-bromopyrazole,2075-45-8,16375,No,10.1016/j.jct.2017.05.005
Brc1cn[nH]c1,288.15,ethanol,CCO,0.2875,6.9483494057159865,0.8418816493201099,4-bromopyrazole,2075-45-8,16375,No,10.1016/j.jct.2017.05.005
Brc1cn[nH]c1,290.65,ethanol,CCO,0.2992,7.337109339608813,0.865524991098072,4-bromopyrazole,2075-45-8,16375,No,10.1016/j.jct.2017.05.005
Brc1cn[nH]c1,293.15,ethanol,CCO,0.3109,7.732311201133161,0.8883093246911141,4-bromopyrazole,2075-45-8,16375,No,10.1016/j.jct.2017.05.005
Brc1cn[nH]c1,295.65,ethanol,CCO,0.3249,8.224996783224304,0.9151357367705582,4-bromopyrazole,2075-45-8,16375,No,10.1016/j.jct.2017.05.005
Brc1cn[nH]c1,298.15,ethanol,CCO,0.3388,8.735932241462628,0.9413092568541367,4-bromopyrazole,2075-45-8,16375,No,10.1016/j.jct.2017.05.005
Brc1cn[nH]c1,300.65,ethanol,CCO,0.3538,9.305254862000533,0.9687282725387562,4-bromopyrazole,2075-45-8,16375,No,10.1016/j.jct.2017.05.005
Brc1cn[nH]c1,303.15,ethanol,CCO,0.3716,10.023656293159682,1.0010261664713973,4-bromopyrazole,2075-45-8,16375,No,10.1016/j.jct.2017.05.005
Brc1cn[nH]c1,305.65,ethanol,CCO,0.3895,10.782734995809836,1.0327289318095376,4-bromopyrazole,2075-45-8,16375,No,10.1016/j.jct.2017.05.005
Brc1cn[nH]c1,308.15,ethanol,CCO,0.4088,11.653414741686966,1.066453203145043,4-bromopyrazole,2075-45-8,16375,No,10.1016/j.jct.2017.05.005
Brc1cn[nH]c1,310.65,ethanol,CCO,0.4315,12.755971302893569,1.1057135335397998,4-bromopyrazole,2075-45-8,16375,No,10.1016/j.jct.2017.05.005
Brc1cn[nH]c1,313.15,ethanol,CCO,0.4568,14.095114185565686,1.1490685984736888,4-bromopyrazole,2075-45-8,16375,No,10.1016/j.jct.2017.05.005
Brc1cn[nH]c1,315.65,ethanol,CCO,0.4815,15.518615285659976,1.1908529668818248,4-bromopyrazole,2075-45-8,16375,No,10.1016/j.jct.2017.05.005
Brc1cn[nH]c1,318.15,ethanol,CCO,0.5063,17.0883161040159,1.2326992691125112,4-bromopyrazole,2075-45-8,16375,No,10.1016/j.jct.2017.05.005
NCC1(CC(=O)O)CCCCC1,283.15,ethanol,CCO,0.00134,0.023230764554116788,-1.6339364967787564,Gabapentin,60142-96-3,3446,Yes,10.1016/j.jct.2017.05.041
NCC1(CC(=O)O)CCCCC1,288.15,ethanol,CCO,0.0015300000000000001,0.02638669998456296,-1.5786149208110223,Gabapentin,60142-96-3,3446,Yes,10.1016/j.jct.2017.05.041
NCC1(CC(=O)O)CCCCC1,293.15,ethanol,CCO,0.0017,0.02918493314733942,-1.5348412971722156,Gabapentin,60142-96-3,3446,Yes,10.1016/j.jct.2017.05.041
NCC1(CC(=O)O)CCCCC1,298.15,ethanol,CCO,0.0018700000000000001,0.03194134484958839,-1.4956468023973015,Gabapentin,60142-96-3,3446,Yes,10.1016/j.jct.2017.05.041
NCC1(CC(=O)O)CCCCC1,303.15,ethanol,CCO,0.0022400000000000002,0.03805472314160324,-1.419591433320837,Gabapentin,60142-96-3,3446,Yes,10.1016/j.jct.2017.05.041
NCC1(CC(=O)O)CCCCC1,308.15,ethanol,CCO,0.0024300000000000003,0.041052502376624916,-1.3866603650917535,Gabapentin,60142-96-3,3446,Yes,10.1016/j.jct.2017.05.041
NCC1(CC(=O)O)CCCCC1,313.15,ethanol,CCO,0.00267,0.04487191898768591,-1.3480253570784277,Gabapentin,60142-96-3,3446,Yes,10.1016/j.jct.2017.05.041
NCC1(CC(=O)O)CCCCC1,318.15,ethanol,CCO,0.003,0.05013956541094337,-1.2998194346467922,Gabapentin,60142-96-3,3446,Yes,10.1016/j.jct.2017.05.041
NCC1(CC(=O)O)CCCCC1,323.15,ethanol,CCO,0.00329,0.05468354471267667,-1.2621433412282275,Gabapentin,60142-96-3,3446,Yes,10.1016/j.jct.2017.05.041
O=C1O[C@H]([C@@H](O)CO)C(O)=C1O,293.15,ethanol,CCO,0.00531,0.0914908414391308,-1.0386223781906299,Vitamin C,50-81-7,54670067,Yes,10.1016/j.jct.2018.02.005
O=C1O[C@H]([C@@H](O)CO)C(O)=C1O,303.15,ethanol,CCO,0.00689,0.11760032025592404,-0.9295914955626761,Vitamin C,50-81-7,54670067,Yes,10.1016/j.jct.2018.02.005
O=C1O[C@H]([C@@H](O)CO)C(O)=C1O,313.15,ethanol,CCO,0.00914,0.15460949566334337,-0.8107638365008112,Vitamin C,50-81-7,54670067,Yes,10.1016/j.jct.2018.02.005
O=C1O[C@H]([C@@H](O)CO)C(O)=C1O,323.15,ethanol,CCO,0.01204,0.20189088037629183,-0.6948832981524699,Vitamin C,50-81-7,54670067,Yes,10.1016/j.jct.2018.02.005
N[C@@H](Cc1ccc(O)cc1)C(=O)O,283.15,ethanol,CCO,3.874e-07,6.707121051094344e-06,-5.173463855378763,L-tyrosine,60-18-4,6057,Yes,10.1016/j.jct.2018.05.011
N[C@@H](Cc1ccc(O)cc1)C(=O)O,288.15,ethanol,CCO,5.162e-07,8.888876932096697e-06,-5.051153106634272,L-tyrosine,60-18-4,6057,Yes,10.1016/j.jct.2018.05.011
N[C@@H](Cc1ccc(O)cc1)C(=O)O,293.15,ethanol,CCO,6.582e-07,1.1280517312179391e-05,-4.947670983626312,L-tyrosine,60-18-4,6057,Yes,10.1016/j.jct.2018.05.011
N[C@@H](Cc1ccc(O)cc1)C(=O)O,298.15,ethanol,CCO,8.694e-07,1.4822406296485205e-05,-4.829081286474517,L-tyrosine,60-18-4,6057,Yes,10.1016/j.jct.2018.05.011
N[C@@H](Cc1ccc(O)cc1)C(=O)O,303.15,ethanol,CCO,1.113e-06,1.886610665210421e-05,-4.724317714777535,L-tyrosine,60-18-4,6057,Yes,10.1016/j.jct.2018.05.011
N[C@@H](Cc1ccc(O)cc1)C(=O)O,308.15,ethanol,CCO,1.4019999999999999e-06,2.362791304558565e-05,-4.626574636082913,L-tyrosine,60-18-4,6057,Yes,10.1016/j.jct.2018.05.011
N[C@@H](Cc1ccc(O)cc1)C(=O)O,313.15,ethanol,CCO,1.7410000000000001e-06,2.918110892727113e-05,-4.534898208266975,L-tyrosine,60-18-4,6057,Yes,10.1016/j.jct.2018.05.011
N[C@@H](Cc1ccc(O)cc1)C(=O)O,318.15,ethanol,CCO,2.145e-06,3.5742316568287064e-05,-4.446817302971393,L-tyrosine,60-18-4,6057,Yes,10.1016/j.jct.2018.05.011
N[C@@H](Cc1ccc(O)cc1)C(=O)O,323.15,ethanol,CCO,2.647e-06,4.3851521575422586e-05,-4.358015332734767,L-tyrosine,60-18-4,6057,Yes,10.1016/j.jct.2018.05.011
Clc1ncnc2nc[nH]c12,283.15,ethanol,CCO,0.008704,0.15201690582664543,-0.8181081114042374,6-chloropurine,87-42-3,5359277,No,10.1016/j.jct.2018.07.028
Clc1ncnc2nc[nH]c12,288.15,ethanol,CCO,0.01026,0.1785068586062929,-0.74834509273026,6-chloropurine,87-42-3,5359277,No,10.1016/j.jct.2018.07.028
Clc1ncnc2nc[nH]c12,293.15,ethanol,CCO,0.012190000000000001,0.21149550413449084,-0.6746988602054155,6-chloropurine,87-42-3,5359277,No,10.1016/j.jct.2018.07.028
Clc1ncnc2nc[nH]c12,298.15,ethanol,CCO,0.01437,0.24856590318595947,-0.6045584455808711,6-chloropurine,87-42-3,5359277,No,10.1016/j.jct.2018.07.028
Clc1ncnc2nc[nH]c12,303.15,ethanol,CCO,0.01684,0.2903384298098461,-0.5370954762256609,6-chloropurine,87-42-3,5359277,No,10.1016/j.jct.2018.07.028
Clc1ncnc2nc[nH]c12,308.15,ethanol,CCO,0.01952,0.3355195382655385,-0.47428218454464316,6-chloropurine,87-42-3,5359277,No,10.1016/j.jct.2018.07.028
Clc1ncnc2nc[nH]c12,313.15,ethanol,CCO,0.0226,0.3875594839577242,-0.41166163103640974,6-chloropurine,87-42-3,5359277,No,10.1016/j.jct.2018.07.028
Clc1ncnc2nc[nH]c12,318.15,ethanol,CCO,0.02597,0.4442772605159433,-0.35234591472486293,6-chloropurine,87-42-3,5359277,No,10.1016/j.jct.2018.07.028
Clc1ncnc2nc[nH]c12,323.15,ethanol,CCO,0.02965,0.5062043395081989,-0.29567413611101856,6-chloropurine,87-42-3,5359277,No,10.1016/j.jct.2018.07.028
Clc1ncnc2nc[nH]c12,328.15,ethanol,CCO,0.03383,0.5765706120502496,-0.23914749748314365,6-chloropurine,87-42-3,5359277,No,10.1016/j.jct.2018.07.028
COC(=O)Nc1nc2ccccc2[nH]1,278.15,ethanol,CCO,8.289e-06,0.00014441559273035525,-3.8403859129218083,Carbendazim,10605-21-7,25429,No,10.1016/j.jct.2018.08.001
COC(=O)Nc1nc2ccccc2[nH]1,283.15,ethanol,CCO,1.1410000000000001e-05,0.00019754541750880995,-3.7043330402610466,Carbendazim,10605-21-7,25429,No,10.1016/j.jct.2018.08.001
COC(=O)Nc1nc2ccccc2[nH]1,288.15,ethanol,CCO,1.6579999999999997e-05,0.0002855093898050721,-3.544379604148533,Carbendazim,10605-21-7,25429,No,10.1016/j.jct.2018.08.001
COC(=O)Nc1nc2ccccc2[nH]1,293.15,ethanol,CCO,2.281e-05,0.0003909363413392153,-3.407893955790626,Carbendazim,10605-21-7,25429,No,10.1016/j.jct.2018.08.001
COC(=O)Nc1nc2ccccc2[nH]1,298.15,ethanol,CCO,3.163e-05,0.0005392766657344039,-3.2681883710376862,Carbendazim,10605-21-7,25429,No,10.1016/j.jct.2018.08.001
COC(=O)Nc1nc2ccccc2[nH]1,303.15,ethanol,CCO,4.2810000000000005e-05,0.0007256888626550337,-3.139249542103215,Carbendazim,10605-21-7,25429,No,10.1016/j.jct.2018.08.001
COC(=O)Nc1nc2ccccc2[nH]1,308.15,ethanol,CCO,5.742e-05,0.0009677537602635853,-3.014235132529232,Carbendazim,10605-21-7,25429,No,10.1016/j.jct.2018.08.001
COC(=O)Nc1nc2ccccc2[nH]1,313.15,ethanol,CCO,7.63e-05,0.0012789687712919109,-2.8931400596035797,Carbendazim,10605-21-7,25429,No,10.1016/j.jct.2018.08.001
COC(=O)Nc1nc2ccccc2[nH]1,318.15,ethanol,CCO,9.976000000000001e-05,0.0016624716069206808,-2.7792457632055925,Carbendazim,10605-21-7,25429,No,10.1016/j.jct.2018.08.001
N[C@H](Cc1c[nH]c2ccccc12)C(=O)O,283.15,ethanol,CCO,9.343e-05,0.0016177197471722929,-2.7910967131308433,D-tryptophan,153-94-6,9060,No,10.1016/j.jct.2018.08.018
N[C@H](Cc1c[nH]c2ccccc12)C(=O)O,288.15,ethanol,CCO,0.0001119,0.0019271137750957062,-2.715092644224881,D-tryptophan,153-94-6,9060,No,10.1016/j.jct.2018.08.018
N[C@H](Cc1c[nH]c2ccccc12)C(=O)O,293.15,ethanol,CCO,0.0001352,0.00231742807891492,-2.6349937352482176,D-tryptophan,153-94-6,9060,No,10.1016/j.jct.2018.08.018
N[C@H](Cc1c[nH]c2ccccc12)C(=O)O,298.15,ethanol,CCO,0.0001646,0.0028067260258283727,-2.5517999782732996,D-tryptophan,153-94-6,9060,No,10.1016/j.jct.2018.08.018
N[C@H](Cc1c[nH]c2ccccc12)C(=O)O,303.15,ethanol,CCO,0.0002022,0.003428116812357448,-2.4649443880038207,D-tryptophan,153-94-6,9060,No,10.1016/j.jct.2018.08.018
N[C@H](Cc1c[nH]c2ccccc12)C(=O)O,308.15,ethanol,CCO,0.0002432,0.004099642108825331,-2.3872540547306222,D-tryptophan,153-94-6,9060,No,10.1016/j.jct.2018.08.018
N[C@H](Cc1c[nH]c2ccccc12)C(=O)O,313.15,ethanol,CCO,0.0002897,0.004857094945449724,-2.313623406948649,D-tryptophan,153-94-6,9060,No,10.1016/j.jct.2018.08.018
N[C@H](Cc1c[nH]c2ccccc12)C(=O)O,318.15,ethanol,CCO,0.0003483,0.005805762080510536,-2.2361407654796377,D-tryptophan,153-94-6,9060,No,10.1016/j.jct.2018.08.018
N[C@H](Cc1c[nH]c2ccccc12)C(=O)O,323.15,ethanol,CCO,0.00041,0.006795032376263479,-2.167808469645383,D-tryptophan,153-94-6,9060,No,10.1016/j.jct.2018.08.018
N[C@H](Cc1c[nH]c2ccccc12)C(=O)O,328.15,ethanol,CCO,0.0004838,0.007970399307820432,-2.0985199204057796,D-tryptophan,153-94-6,9060,No,10.1016/j.jct.2018.08.018
N[C@H](Cc1c[nH]c2ccccc12)C(=O)O,333.15,ethanol,CCO,0.000567,0.009290140200457214,-2.0319777318809025,D-tryptophan,153-94-6,9060,No,10.1016/j.jct.2018.08.018
NC(=NCCCCCCN=C(N)/N=C(\N)Nc1ccc(Cl)cc1)/N=C(\N)Nc1ccc(Cl)cc1,283.15,ethanol,CCO,0.0004048,0.007011205584847504,-2.1542072981775404,Chlorhexidine,55-56-1,2713,No,10.1016/j.jct.2018.09.008
NC(=NCCCCCCN=C(N)/N=C(\N)Nc1ccc(Cl)cc1)/N=C(\N)Nc1ccc(Cl)cc1,288.15,ethanol,CCO,0.00047149999999999997,0.008122976263887553,-2.0902848158137557,Chlorhexidine,55-56-1,2713,No,10.1016/j.jct.2018.09.008
NC(=NCCCCCCN=C(N)/N=C(\N)Nc1ccc(Cl)cc1)/N=C(\N)Nc1ccc(Cl)cc1,293.15,ethanol,CCO,0.0005386,0.009235728883970227,-2.0345288243390827,Chlorhexidine,55-56-1,2713,No,10.1016/j.jct.2018.09.008
NC(=NCCCCCCN=C(N)/N=C(\N)Nc1ccc(Cl)cc1)/N=C(\N)Nc1ccc(Cl)cc1,298.15,ethanol,CCO,0.0006133,0.01046256331796717,-1.9803619007013802,Chlorhexidine,55-56-1,2713,No,10.1016/j.jct.2018.09.008
NC(=NCCCCCCN=C(N)/N=C(\N)Nc1ccc(Cl)cc1)/N=C(\N)Nc1ccc(Cl)cc1,303.15,ethanol,CCO,0.0007064,0.011982411281057303,-1.9214557778830048,Chlorhexidine,55-56-1,2713,No,10.1016/j.jct.2018.09.008
NC(=NCCCCCCN=C(N)/N=C(\N)Nc1ccc(Cl)cc1)/N=C(\N)Nc1ccc(Cl)cc1,308.15,ethanol,CCO,0.0008033,0.013548883774923253,-1.8680964826759041,Chlorhexidine,55-56-1,2713,No,10.1016/j.jct.2018.09.008
NC(=NCCCCCCN=C(N)/N=C(\N)Nc1ccc(Cl)cc1)/N=C(\N)Nc1ccc(Cl)cc1,313.15,ethanol,CCO,0.0009139,0.015331972267728648,-1.8144019749631664,Chlorhexidine,55-56-1,2713,No,10.1016/j.jct.2018.09.008
NC(=NCCCCCCN=C(N)/N=C(\N)Nc1ccc(Cl)cc1)/N=C(\N)Nc1ccc(Cl)cc1,318.15,ethanol,CCO,0.001034,0.017247426406574624,-1.7632756994781489,Chlorhexidine,55-56-1,2713,No,10.1016/j.jct.2018.09.008
NC(=NCCCCCCN=C(N)/N=C(\N)Nc1ccc(Cl)cc1)/N=C(\N)Nc1ccc(Cl)cc1,323.15,ethanol,CCO,0.0011690000000000001,0.019388851071254466,-1.7124479252275284,Chlorhexidine,55-56-1,2713,No,10.1016/j.jct.2018.09.008
c1ccc2c(c1)sc1ccccc12,294.55,ethanol,CCO,0.0062,0.10675217012353724,-0.9716232876088156,Dibenzothiophene,132-65-0,3023,No,10.1016/j.jct.2018.09.017
c1ccc2c(c1)sc1ccccc12,300.25,ethanol,CCO,0.0074,0.12676188276870626,-0.8970113189453897,Dibenzothiophene,132-65-0,3023,No,10.1016/j.jct.2018.09.017
c1ccc2c(c1)sc1ccccc12,303.85,ethanol,CCO,0.0082,0.14001460754368567,-0.8538266525740767,Dibenzothiophene,132-65-0,3023,No,10.1016/j.jct.2018.09.017
c1ccc2c(c1)sc1ccccc12,306.45,ethanol,CCO,0.0092,0.15679018077405482,-0.8046811391590751,Dibenzothiophene,132-65-0,3023,No,10.1016/j.jct.2018.09.017
c1ccc2c(c1)sc1ccccc12,310.25,ethanol,CCO,0.0106,0.18013295915522148,-0.7444068164995251,Dibenzothiophene,132-65-0,3023,No,10.1016/j.jct.2018.09.017
c1ccc2c(c1)sc1ccccc12,313.95,ethanol,CCO,0.0121,0.20507608744143108,-0.6880849768704411,Dibenzothiophene,132-65-0,3023,No,10.1016/j.jct.2018.09.017
c1ccc2c(c1)sc1ccccc12,318.95,ethanol,CCO,0.0141,0.23810137506585663,-0.623238096481767,Dibenzothiophene,132-65-0,3023,No,10.1016/j.jct.2018.09.017
c1ccc2c(c1)sc1ccccc12,322.55,ethanol,CCO,0.0164,0.2764496483524337,-0.5583839581531514,Dibenzothiophene,132-65-0,3023,No,10.1016/j.jct.2018.09.017