SMILES_Solute,Temperature_K,Solvent,SMILES_Solvent,Solubility(mole_fraction),Solubility(mol/L),LogS(mol/L),Compound_Name,CAS,PubChem_CID,FDA_Approved,Source
O=C([O-])CCP(=O)([O-])c1ccccc1.[Na+].[Na+],303.15,ethanol,CCO,0.0001382,0.0023429051348628823,-2.630245295798963,Propanoic acid 3-(hydroxyphenylphosphinyl)-disodium salt,,,No,10.1016/j.fluid.2013.02.001
O=C([O-])CCP(=O)([O-])c1ccccc1.[Na+].[Na+],308.15,ethanol,CCO,0.0001974,0.0033274353636011584,-2.47789037206786,Propanoic acid 3-(hydroxyphenylphosphinyl)-disodium salt,,,No,10.1016/j.fluid.2013.02.001
O=C([O-])CCP(=O)([O-])c1ccccc1.[Na+].[Na+],313.15,ethanol,CCO,0.000264,0.0044260963150800055,-2.3539791397416456,Propanoic acid 3-(hydroxyphenylphosphinyl)-disodium salt,,,No,10.1016/j.fluid.2013.02.001
O=C([O-])CCP(=O)([O-])c1ccccc1.[Na+].[Na+],318.15,ethanol,CCO,0.00035210000000000005,0.005869126038694752,-2.2314265639705146,Propanoic acid 3-(hydroxyphenylphosphinyl)-disodium salt,,,No,10.1016/j.fluid.2013.02.001
O=C([O-])CCP(=O)([O-])c1ccccc1.[Na+].[Na+],323.15,ethanol,CCO,0.0005053,0.008375261562309992,-2.0770016209127196,Propanoic acid 3-(hydroxyphenylphosphinyl)-disodium salt,,,No,10.1016/j.fluid.2013.02.001
O=C([O-])CCP(=O)([O-])c1ccccc1.[Na+].[Na+],328.15,ethanol,CCO,0.0007276,0.01198982518819811,-1.9211871488739942,Propanoic acid 3-(hydroxyphenylphosphinyl)-disodium salt,,,No,10.1016/j.fluid.2013.02.001
O=C([O-])CCP(=O)([O-])c1ccccc1.[Na+].[Na+],333.15,ethanol,CCO,0.0009257,0.015172787336406555,-1.81893462925788,Propanoic acid 3-(hydroxyphenylphosphinyl)-disodium salt,,,No,10.1016/j.fluid.2013.02.001
O=C([O-])CCP(=O)([O-])c1ccccc1.[Na+].[Na+],343.15,ethanol,CCO,0.00164,0.026594387828698114,-1.5752100021728157,Propanoic acid 3-(hydroxyphenylphosphinyl)-disodium salt,,,No,10.1016/j.fluid.2013.02.001
O=C(O)CC(S)C(=O)O,278.15,ethanol,CCO,0.1384,2.798586580981264,0.4469387473909517,Thiomalic acid,70-49-5,6268,No,10.1016/j.fluid.2013.05.002
O=C(O)CC(S)C(=O)O,283.15,ethanol,CCO,0.1542,3.1564074000650457,0.4991930528964868,Thiomalic acid,70-49-5,6268,No,10.1016/j.fluid.2013.05.002
O=C(O)CC(S)C(=O)O,288.15,ethanol,CCO,0.1688,3.4969995523516006,0.5436955767155238,Thiomalic acid,70-49-5,6268,No,10.1016/j.fluid.2013.05.002
O=C(O)CC(S)C(=O)O,293.15,ethanol,CCO,0.1861,3.918737539241013,0.5931461772121193,Thiomalic acid,70-49-5,6268,No,10.1016/j.fluid.2013.05.002
O=C(O)CC(S)C(=O)O,298.15,ethanol,CCO,0.2046,4.385496238265509,0.6420187428210572,Thiomalic acid,70-49-5,6268,No,10.1016/j.fluid.2013.05.002
O=C(O)CC(S)C(=O)O,303.15,ethanol,CCO,0.2237,4.884532858285563,0.6888230354509418,Thiomalic acid,70-49-5,6268,No,10.1016/j.fluid.2013.05.002
O=C(O)CC(S)C(=O)O,308.15,ethanol,CCO,0.2439,5.436373710941268,0.7353093036566676,Thiomalic acid,70-49-5,6268,No,10.1016/j.fluid.2013.05.002
O=C(O)CC(S)C(=O)O,313.15,ethanol,CCO,0.2649,6.040011980515089,0.7810378000559718,Thiomalic acid,70-49-5,6268,No,10.1016/j.fluid.2013.05.002
O=C(O)CC(S)C(=O)O,318.15,ethanol,CCO,0.2874,6.7204045120253575,0.8273954147284113,Thiomalic acid,70-49-5,6268,No,10.1016/j.fluid.2013.05.002
O=C(O)CC(S)C(=O)O,323.15,ethanol,CCO,0.3104,7.45682646211254,0.872554036154364,Thiomalic acid,70-49-5,6268,No,10.1016/j.fluid.2013.05.002
O=C(O)CC(S)C(=O)O,328.15,ethanol,CCO,0.3351,8.298930889207657,0.9190221479394836,Thiomalic acid,70-49-5,6268,No,10.1016/j.fluid.2013.05.002
O=C(O)CC(S)C(=O)O,333.15,ethanol,CCO,0.3607,9.239199233372684,0.9656343323026015,Thiomalic acid,70-49-5,6268,No,10.1016/j.fluid.2013.05.002
O=C(O)CC(O)(CC(=O)O)C(=O)O,293.7,ethanol,CCO,0.2482,5.654477534372556,0.7523924829269985,Citric acid,77-92-9,311,Yes,10.1016/j.fluid.2013.05.014
O=C(O)CC(O)(CC(=O)O)C(=O)O,303.3,ethanol,CCO,0.27,6.2674655880542005,0.7970919581134291,Citric acid,77-92-9,311,Yes,10.1016/j.fluid.2013.05.014
O=C(O)CC(O)(CC(=O)O)C(=O)O,313.4,ethanol,CCO,0.2806,6.534771191373629,0.8152303857859584,Citric acid,77-92-9,311,Yes,10.1016/j.fluid.2013.05.014
COC(=O)C1CC(=O)C(C(=O)OC)CC1=O,278.15,ethanol,CCO,0.00013,0.00226520839156019,-2.6448918381802717,Dimethyl succinylsuccinate,6289-46-9,94866,No,10.1016/j.fluid.2013.06.037
COC(=O)C1CC(=O)C(C(=O)OC)CC1=O,283.15,ethanol,CCO,0.00019,0.0032901256556855593,-2.482787515263171,Dimethyl succinylsuccinate,6289-46-9,94866,No,10.1016/j.fluid.2013.06.037
COC(=O)C1CC(=O)C(C(=O)OC)CC1=O,288.15,ethanol,CCO,0.00024,0.0041337494855371686,-2.383655846128046,Dimethyl succinylsuccinate,6289-46-9,94866,No,10.1016/j.fluid.2013.06.037
COC(=O)C1CC(=O)C(C(=O)OC)CC1=O,293.15,ethanol,CCO,0.00032,0.005486050832452541,-2.260740172642652,Dimethyl succinylsuccinate,6289-46-9,94866,No,10.1016/j.fluid.2013.06.037
COC(=O)C1CC(=O)C(C(=O)OC)CC1=O,298.15,ethanol,CCO,0.00042,0.007163585232312147,-2.144869567509321,Dimethyl succinylsuccinate,6289-46-9,94866,No,10.1016/j.fluid.2013.06.037
COC(=O)C1CC(=O)C(C(=O)OC)CC1=O,303.15,ethanol,CCO,0.00056,0.00949768884619538,-2.022382062443396,Dimethyl succinylsuccinate,6289-46-9,94866,No,10.1016/j.fluid.2013.06.037
COC(=O)C1CC(=O)C(C(=O)OC)CC1=O,308.15,ethanol,CCO,0.00071,0.011974118416278559,-1.9217564512778527,Dimethyl succinylsuccinate,6289-46-9,94866,No,10.1016/j.fluid.2013.06.037
COC(=O)C1CC(=O)C(C(=O)OC)CC1=O,313.15,ethanol,CCO,0.00095,0.015938177004404877,-1.7975613543454105,Dimethyl succinylsuccinate,6289-46-9,94866,No,10.1016/j.fluid.2013.06.037
COC(=O)C1CC(=O)C(C(=O)OC)CC1=O,318.15,ethanol,CCO,0.00121,0.0201867151002045,-1.6949343462332775,Dimethyl succinylsuccinate,6289-46-9,94866,No,10.1016/j.fluid.2013.06.037
COC(=O)C1CC(=O)C(C(=O)OC)CC1=O,323.15,ethanol,CCO,0.00159,0.026382611270585707,-1.57868222151591,Dimethyl succinylsuccinate,6289-46-9,94866,No,10.1016/j.fluid.2013.06.037
COC(=O)C1CC(=O)C(C(=O)OC)CC1=O,328.15,ethanol,CCO,0.00198,0.03266856054338129,-1.4858700011792616,Dimethyl succinylsuccinate,6289-46-9,94866,No,10.1016/j.fluid.2013.06.037
COC(=O)C1CC(=O)C(C(=O)OC)CC1=O,333.15,ethanol,CCO,0.00243,0.039889242391712806,-1.399144212078807,Dimethyl succinylsuccinate,6289-46-9,94866,No,10.1016/j.fluid.2013.06.037
C/C=C/C(=O)O,278.15,ethanol,CCO,0.2229,4.9973700200469615,0.6987415070802048,Crotonic acid,107-93-7,637090,No,10.1016/j.fluid.2013.06.038
C/C=C/C(=O)O,283.15,ethanol,CCO,0.2525,5.848258294541609,0.7670265454506431,Crotonic acid,107-93-7,637090,No,10.1016/j.fluid.2013.06.038
C/C=C/C(=O)O,288.15,ethanol,CCO,0.288,6.965321436506695,0.8429411630973829,Crotonic acid,107-93-7,637090,No,10.1016/j.fluid.2013.06.038
C/C=C/C(=O)O,293.15,ethanol,CCO,0.319,8.028130504237259,0.9046144237070068,Crotonic acid,107-93-7,637090,No,10.1016/j.fluid.2013.06.038
C/C=C/C(=O)O,298.15,ethanol,CCO,0.37,10.012899904801182,1.0005598747082907,Crotonic acid,107-93-7,637090,No,10.1016/j.fluid.2013.06.038
C/C=C/C(=O)O,303.15,ethanol,CCO,0.4034,11.46144256337731,1.0592392823684318,Crotonic acid,107-93-7,637090,No,10.1016/j.fluid.2013.06.038
Nc1ccc(Oc2ccc(N)cc2)cc1,283.15,ethanol,CCO,0.000434,0.007517174194684518,-2.1239453857770894,"4,4-oxydianiline",101-80-4,7579,No,10.1016/j.fluid.2013.07.010
Nc1ccc(Oc2ccc(N)cc2)cc1,288.15,ethanol,CCO,0.000549,0.009458875442316545,-2.024160493431975,"4,4-oxydianiline",101-80-4,7579,No,10.1016/j.fluid.2013.07.010
Nc1ccc(Oc2ccc(N)cc2)cc1,293.15,ethanol,CCO,0.0007,0.012005299670176339,-1.9206269948339716,"4,4-oxydianiline",101-80-4,7579,No,10.1016/j.fluid.2013.07.010
Nc1ccc(Oc2ccc(N)cc2)cc1,298.15,ethanol,CCO,0.00089,0.015187119175585252,-1.8185245990668635,"4,4-oxydianiline",101-80-4,7579,No,10.1016/j.fluid.2013.07.010
Nc1ccc(Oc2ccc(N)cc2)cc1,303.15,ethanol,CCO,0.00113,0.01917591567524679,-1.7172438887499306,"4,4-oxydianiline",101-80-4,7579,No,10.1016/j.fluid.2013.07.010
Nc1ccc(Oc2ccc(N)cc2)cc1,308.15,ethanol,CCO,0.001428,0.02410047291090252,-1.6179744354093504,"4,4-oxydianiline",101-80-4,7579,No,10.1016/j.fluid.2013.07.010
Nc1ccc(Oc2ccc(N)cc2)cc1,313.15,ethanol,CCO,0.001764,0.029618810780897745,-1.5284323827379067,"4,4-oxydianiline",101-80-4,7579,No,10.1016/j.fluid.2013.07.010
Nc1ccc(Oc2ccc(N)cc2)cc1,318.15,ethanol,CCO,0.002173,0.036287658351954126,-1.4402410559834231,"4,4-oxydianiline",101-80-4,7579,No,10.1016/j.fluid.2013.07.010
Nc1ccc(Oc2ccc(N)cc2)cc1,323.15,ethanol,CCO,0.002704,0.044917149388343215,-1.3475878135013186,"4,4-oxydianiline",101-80-4,7579,No,10.1016/j.fluid.2013.07.010
NCC(=O)O,278.15,ethanol,CCO,0.0003,0.005228292905877811,-2.2816400898284677,Glycine,56-40-6,750,Yes,10.1016/j.fluid.2013.09.013
NCC(=O)O,283.15,ethanol,CCO,0.0003,0.005195506860180652,-2.284372077396175,Glycine,56-40-6,750,Yes,10.1016/j.fluid.2013.09.013
NCC(=O)O,288.15,ethanol,CCO,0.0004,0.006890685250201146,-2.1617375871514417,Glycine,56-40-6,750,Yes,10.1016/j.fluid.2013.09.013
NCC(=O)O,293.15,ethanol,CCO,0.0005,0.008573498149365548,-2.066841941555506,Glycine,56-40-6,750,Yes,10.1016/j.fluid.2013.09.013
NCC(=O)O,298.15,ethanol,CCO,0.0007,0.01194265406870572,-1.922899147301705,Glycine,56-40-6,750,Yes,10.1016/j.fluid.2013.09.013
NCC(=O)O,303.15,ethanol,CCO,0.0009,0.015269337272111617,-1.816179812014363,Glycine,56-40-6,750,Yes,10.1016/j.fluid.2013.09.013
NCC(=O)O,308.15,ethanol,CCO,0.0011,0.018558694100726716,-1.7314525865655226,Glycine,56-40-6,750,Yes,10.1016/j.fluid.2013.09.013
NCC(=O)O,313.15,ethanol,CCO,0.0015,0.025179404479747033,-1.5989545456426977,Glycine,56-40-6,750,Yes,10.1016/j.fluid.2013.09.013
NCC(=O)O,318.1,ethanol,CCO,0.0019,0.03172309702193367,-1.4986244205385741,Glycine,56-40-6,750,Yes,10.1016/j.fluid.2013.09.013
NCC(=O)O,323.15,ethanol,CCO,0.0023,0.03819068430530509,-1.418042559815858,Glycine,56-40-6,750,Yes,10.1016/j.fluid.2013.09.013
NCC(=O)O,328.15,ethanol,CCO,0.0028,0.04623595310395121,-1.335020185433914,Glycine,56-40-6,750,Yes,10.1016/j.fluid.2013.09.013
Cc1cc(C)nc(NS(=O)(=O)c2ccc(N)cc2)n1,293.15,ethanol,CCO,7.47e-05,0.00128033582428953,-2.892676102612431,Sulfamethazine,57-68-1,5327,Yes,10.1016/j.fluid.2013.09.018
Cc1cc(C)nc(NS(=O)(=O)c2ccc(N)cc2)n1,298.15,ethanol,CCO,9.18e-05,0.0015652411299310564,-2.8054187486403777,Sulfamethazine,57-68-1,5327,Yes,10.1016/j.fluid.2013.09.018
Cc1cc(C)nc(NS(=O)(=O)c2ccc(N)cc2)n1,303.15,ethanol,CCO,0.00010869999999999999,0.0018427371524320267,-2.734536608019863,Sulfamethazine,57-68-1,5327,Yes,10.1016/j.fluid.2013.09.018
Cc1cc(C)nc(NS(=O)(=O)c2ccc(N)cc2)n1,308.15,ethanol,CCO,0.0001299,0.002189486697853276,-2.659657689004155,Sulfamethazine,57-68-1,5327,Yes,10.1016/j.fluid.2013.09.018
Cc1cc(C)nc(NS(=O)(=O)c2ccc(N)cc2)n1,313.15,ethanol,CCO,0.00016230000000000001,0.002720766527769023,-2.5653087239504555,Sulfamethazine,57-68-1,5327,Yes,10.1016/j.fluid.2013.09.018
Cc1ccnc(NS(=O)(=O)c2ccc(N)cc2)n1,293.15,ethanol,CCO,2.7400000000000002e-05,0.0004696056519308025,-3.3282666847851687,Sulfamerazine,127-79-7,5325,Yes,10.1016/j.fluid.2013.09.018
Cc1ccnc(NS(=O)(=O)c2ccc(N)cc2)n1,298.15,ethanol,CCO,3.41e-05,0.0005813904434001843,-3.2355321112182853,Sulfamerazine,127-79-7,5325,Yes,10.1016/j.fluid.2013.09.018
Cc1ccnc(NS(=O)(=O)c2ccc(N)cc2)n1,303.15,ethanol,CCO,4.09e-05,0.0006933103898664774,-3.1590722914673632,Sulfamerazine,127-79-7,5325,Yes,10.1016/j.fluid.2013.09.018
Cc1ccnc(NS(=O)(=O)c2ccc(N)cc2)n1,308.15,ethanol,CCO,4.9500000000000004e-05,0.0008342638752365405,-3.0786965615523383,Sulfamerazine,127-79-7,5325,Yes,10.1016/j.fluid.2013.09.018
Cc1ccnc(NS(=O)(=O)c2ccc(N)cc2)n1,313.15,ethanol,CCO,6.36e-05,0.0010660731420681982,-2.9722129978358054,Sulfamerazine,127-79-7,5325,Yes,10.1016/j.fluid.2013.09.018
CC1(C)CO[P+]([O-])(Oc2c(Br)cc(Br)cc2Br)OC1,293.15,ethanol,CCO,0.0025,0.04295344060296174,-1.3670020431241374,"1,3,2-dioxaphosphorinane-5,5-dimethyl-2-(2,4,6-tribromophenoxy)-2-oxide",,,No,10.1016/j.fluid.2013.09.023
CC1(C)CO[P+]([O-])(Oc2c(Br)cc(Br)cc2Br)OC1,298.15,ethanol,CCO,0.00298,0.05095784974704007,-1.292788906078857,"1,3,2-dioxaphosphorinane-5,5-dimethyl-2-(2,4,6-tribromophenoxy)-2-oxide",,,No,10.1016/j.fluid.2013.09.023
CC1(C)CO[P+]([O-])(Oc2c(Br)cc(Br)cc2Br)OC1,303.15,ethanol,CCO,0.00358,0.06090139324277451,-1.2153727718871956,"1,3,2-dioxaphosphorinane-5,5-dimethyl-2-(2,4,6-tribromophenoxy)-2-oxide",,,No,10.1016/j.fluid.2013.09.023
CC1(C)CO[P+]([O-])(Oc2c(Br)cc(Br)cc2Br)OC1,308.15,ethanol,CCO,0.00414,0.07006139716980471,-1.1545212061977987,"1,3,2-dioxaphosphorinane-5,5-dimethyl-2-(2,4,6-tribromophenoxy)-2-oxide",,,No,10.1016/j.fluid.2013.09.023
CC1(C)CO[P+]([O-])(Oc2c(Br)cc(Br)cc2Br)OC1,313.15,ethanol,CCO,0.00465,0.07830317944078463,-1.1062206033883595,"1,3,2-dioxaphosphorinane-5,5-dimethyl-2-(2,4,6-tribromophenoxy)-2-oxide",,,No,10.1016/j.fluid.2013.09.023
CC1(C)CO[P+]([O-])(Oc2c(Br)cc(Br)cc2Br)OC1,318.15,ethanol,CCO,0.00556,0.09316454679142384,-1.0307493243640664,"1,3,2-dioxaphosphorinane-5,5-dimethyl-2-(2,4,6-tribromophenoxy)-2-oxide",,,No,10.1016/j.fluid.2013.09.023
CC1(C)CO[P+]([O-])(Oc2c(Br)cc(Br)cc2Br)OC1,323.15,ethanol,CCO,0.00643,0.10721167456874689,-0.9697579205693548,"1,3,2-dioxaphosphorinane-5,5-dimethyl-2-(2,4,6-tribromophenoxy)-2-oxide",,,No,10.1016/j.fluid.2013.09.023
CC1(C)CO[P+]([O-])(Oc2c(Br)cc(Br)cc2Br)OC1,333.15,ethanol,CCO,0.00795,0.13122798539955302,-0.8819735383708025,"1,3,2-dioxaphosphorinane-5,5-dimethyl-2-(2,4,6-tribromophenoxy)-2-oxide",,,No,10.1016/j.fluid.2013.09.023
O=C(O)C[C@H](O)C(=O)O,278.15,ethanol,CCO,0.1104,2.1621342016931493,0.3348826467153357,L-malic acid,97-67-6,222656,No,10.1016/j.fluid.2013.10.011
O=C(O)C[C@H](O)C(=O)O,283.15,ethanol,CCO,0.12560000000000002,2.4868858453042026,0.39565585045196117,L-malic acid,97-67-6,222656,No,10.1016/j.fluid.2013.10.011
O=C(O)C[C@H](O)C(=O)O,288.15,ethanol,CCO,0.1447,2.913256526487268,0.4643787280649235,L-malic acid,97-67-6,222656,No,10.1016/j.fluid.2013.10.011
O=C(O)C[C@H](O)C(=O)O,293.15,ethanol,CCO,0.1661,3.4137091104168675,0.5332265111773247,L-malic acid,97-67-6,222656,No,10.1016/j.fluid.2013.10.011
O=C(O)C[C@H](O)C(=O)O,298.15,ethanol,CCO,0.18719999999999998,3.926637859027959,0.5940208495571198,L-malic acid,97-67-6,222656,No,10.1016/j.fluid.2013.10.011
O=C(O)C[C@H](O)C(=O)O,303.15,ethanol,CCO,0.20679999999999998,4.419309994424268,0.6453544664063688,L-malic acid,97-67-6,222656,No,10.1016/j.fluid.2013.10.011
O=C(O)C[C@H](O)C(=O)O,308.15,ethanol,CCO,0.2316,5.079581587264217,0.7058279402708987,L-malic acid,97-67-6,222656,No,10.1016/j.fluid.2013.10.011
O=C(O)C[C@H](O)C(=O)O,313.15,ethanol,CCO,0.2562,5.773314495446466,0.7614252158940561,L-malic acid,97-67-6,222656,No,10.1016/j.fluid.2013.10.011
O=C(O)C[C@H](O)C(=O)O,318.15,ethanol,CCO,0.2829,6.573666901683453,0.8178076939004741,L-malic acid,97-67-6,222656,No,10.1016/j.fluid.2013.10.011
O=C(O)C[C@H](O)C(=O)O,323.15,ethanol,CCO,0.3135,7.565307411124358,0.8788265799788308,L-malic acid,97-67-6,222656,No,10.1016/j.fluid.2013.10.011
CCN1CCN(C(=O)N[C@@H](C(=O)N[C@@H]2C(=O)N3C(C(=O)O)=C(CSc4nnnn4C)CS[C@H]23)c2ccc(O)cc2)C(=O)C1=O,278.15,ethanol,CCO,1.665e-05,0.00029008803516512117,-3.537470183534201,Cefoperazone,62893-19-0,44187,Yes,10.1016/j.fluid.2013.11.005
CCN1CCN(C(=O)N[C@@H](C(=O)N[C@@H]2C(=O)N3C(C(=O)O)=C(CSc4nnnn4C)CS[C@H]23)c2ccc(O)cc2)C(=O)C1=O,283.15,ethanol,CCO,2.028e-05,0.0003511180195425239,-3.4545468817648692,Cefoperazone,62893-19-0,44187,Yes,10.1016/j.fluid.2013.11.005
CCN1CCN(C(=O)N[C@@H](C(=O)N[C@@H]2C(=O)N3C(C(=O)O)=C(CSc4nnnn4C)CS[C@H]23)c2ccc(O)cc2)C(=O)C1=O,288.15,ethanol,CCO,2.546e-05,0.00043842784170168255,-3.358101874429086,Cefoperazone,62893-19-0,44187,Yes,10.1016/j.fluid.2013.11.005
CCN1CCN(C(=O)N[C@@H](C(=O)N[C@@H]2C(=O)N3C(C(=O)O)=C(CSc4nnnn4C)CS[C@H]23)c2ccc(O)cc2)C(=O)C1=O,293.15,ethanol,CCO,3.112e-05,0.0005333643158516129,-3.2729760436651594,Cefoperazone,62893-19-0,44187,Yes,10.1016/j.fluid.2013.11.005
CCN1CCN(C(=O)N[C@@H](C(=O)N[C@@H]2C(=O)N3C(C(=O)O)=C(CSc4nnnn4C)CS[C@H]23)c2ccc(O)cc2)C(=O)C1=O,298.15,ethanol,CCO,3.721e-05,0.000634416588907005,-3.197625469485251,Cefoperazone,62893-19-0,44187,Yes,10.1016/j.fluid.2013.11.005
CCN1CCN(C(=O)N[C@@H](C(=O)N[C@@H]2C(=O)N3C(C(=O)O)=C(CSc4nnnn4C)CS[C@H]23)c2ccc(O)cc2)C(=O)C1=O,303.15,ethanol,CCO,4.568e-05,0.0007743415648072666,-3.1110674282194193,Cefoperazone,62893-19-0,44187,Yes,10.1016/j.fluid.2013.11.005
CCN1CCN(C(=O)N[C@@H](C(=O)N[C@@H]2C(=O)N3C(C(=O)O)=C(CSc4nnnn4C)CS[C@H]23)c2ccc(O)cc2)C(=O)C1=O,308.15,ethanol,CCO,5.734e-05,0.0009664053670146181,-3.0148406668248056,Cefoperazone,62893-19-0,44187,Yes,10.1016/j.fluid.2013.11.005
CCN1CCN(C(=O)N[C@@H](C(=O)N[C@@H]2C(=O)N3C(C(=O)O)=C(CSc4nnnn4C)CS[C@H]23)c2ccc(O)cc2)C(=O)C1=O,313.15,ethanol,CCO,7.491e-05,0.001255667332568872,-2.9011254042024235,Cefoperazone,62893-19-0,44187,Yes,10.1016/j.fluid.2013.11.005
C=C[C@]1(C)C[C@@H](OC(=O)CSC(C)(C)CNC(=O)[C@H](N)C(C)C)[C@]2(C)[C@H](C)CC[C@]3(CCC(=O)[C@H]32)[C@@H](C)[C@@H]1O.O=C(O)C(O)C(O)C(=O)O,278.15,ethanol,CCO,0.0013160000000000001,0.022958110653940454,-1.6390638552257257,Valnemulin hydrogen tartrate,,,No,10.1016/j.fluid.2014.03.022
C=C[C@]1(C)C[C@@H](OC(=O)CSC(C)(C)CNC(=O)[C@H](N)C(C)C)[C@]2(C)[C@H](C)CC[C@]3(CCC(=O)[C@H]32)[C@@H](C)[C@@H]1O.O=C(O)C(O)C(O)C(=O)O,283.15,ethanol,CCO,0.002081,0.036103819451956606,-1.4424468513030841,Valnemulin hydrogen tartrate,,,No,10.1016/j.fluid.2014.03.022
C=C[C@]1(C)C[C@@H](OC(=O)CSC(C)(C)CNC(=O)[C@H](N)C(C)C)[C@]2(C)[C@H](C)CC[C@]3(CCC(=O)[C@H]32)[C@@H](C)[C@@H]1O.O=C(O)C(O)C(O)C(=O)O,288.15,ethanol,CCO,0.002689,0.046428949988358115,-1.3332111379883262,Valnemulin hydrogen tartrate,,,No,10.1016/j.fluid.2014.03.022
C=C[C@]1(C)C[C@@H](OC(=O)CSC(C)(C)CNC(=O)[C@H](N)C(C)C)[C@]2(C)[C@H](C)CC[C@]3(CCC(=O)[C@H]32)[C@@H](C)[C@@H]1O.O=C(O)C(O)C(O)C(=O)O,293.15,ethanol,CCO,0.003095,0.05320809762996521,-1.27402226829907,Valnemulin hydrogen tartrate,,,No,10.1016/j.fluid.2014.03.022
C=C[C@]1(C)C[C@@H](OC(=O)CSC(C)(C)CNC(=O)[C@H](N)C(C)C)[C@]2(C)[C@H](C)CC[C@]3(CCC(=O)[C@H]32)[C@@H](C)[C@@H]1O.O=C(O)C(O)C(O)C(=O)O,298.15,ethanol,CCO,0.003727,0.06377929761917864,-1.195320267811695,Valnemulin hydrogen tartrate,,,No,10.1016/j.fluid.2014.03.022
C=C[C@]1(C)C[C@@H](OC(=O)CSC(C)(C)CNC(=O)[C@H](N)C(C)C)[C@]2(C)[C@H](C)CC[C@]3(CCC(=O)[C@H]32)[C@@H](C)[C@@H]1O.O=C(O)C(O)C(O)C(=O)O,303.15,ethanol,CCO,0.004804,0.08182405805109355,-1.0871189855380388,Valnemulin hydrogen tartrate,,,No,10.1016/j.fluid.2014.03.022
C=C[C@]1(C)C[C@@H](OC(=O)CSC(C)(C)CNC(=O)[C@H](N)C(C)C)[C@]2(C)[C@H](C)CC[C@]3(CCC(=O)[C@H]32)[C@@H](C)[C@@H]1O.O=C(O)C(O)C(O)C(=O)O,308.15,ethanol,CCO,0.005902,0.10005683162813135,-0.9997532534834418,Valnemulin hydrogen tartrate,,,No,10.1016/j.fluid.2014.03.022
C=C[C@]1(C)C[C@@H](OC(=O)CSC(C)(C)CNC(=O)[C@H](N)C(C)C)[C@]2(C)[C@H](C)CC[C@]3(CCC(=O)[C@H]32)[C@@H](C)[C@@H]1O.O=C(O)C(O)C(O)C(=O)O,313.15,ethanol,CCO,0.007659,0.12936398900647858,-0.8881866011969562,Valnemulin hydrogen tartrate,,,No,10.1016/j.fluid.2014.03.022
C=C[C@]1(C)C[C@@H](OC(=O)CSC(C)(C)CNC(=O)[C@H](N)C(C)C)[C@]2(C)[C@H](C)CC[C@]3(CCC(=O)[C@H]32)[C@@H](C)[C@@H]1O.O=C(O)C(O)C(O)C(=O)O,318.15,ethanol,CCO,0.010285,0.17316041283291922,-0.7615513874532155,Valnemulin hydrogen tartrate,,,No,10.1016/j.fluid.2014.03.022
CC[C@@H](C(=O)[C@@H](C)[C@@H](O)[C@H](C)CCc1ccc(C)c(O)c1C(=O)[O-])[C@H]1O[C@](CC)([C@H]2CC[C@](O)(CC)[C@H](C)O2)C[C@@H]1C.[Na+],283.15,ethanol,CCO,0.0022299999999999998,0.03869463738842082,-1.4123492188051814,Lasalocid sodium,25999-20-6,6426773,No,10.1016/j.fluid.2014.04.008
CC[C@@H](C(=O)[C@@H](C)[C@@H](O)[C@H](C)CCc1ccc(C)c(O)c1C(=O)[O-])[C@H]1O[C@](CC)([C@H]2CC[C@](O)(CC)[C@H](C)O2)C[C@@H]1C.[Na+],288.15,ethanol,CCO,0.00246,0.042465227663072716,-1.3719665432487984,Lasalocid sodium,25999-20-6,6426773,No,10.1016/j.fluid.2014.04.008
CC[C@@H](C(=O)[C@@H](C)[C@@H](O)[C@H](C)CCc1ccc(C)c(O)c1C(=O)[O-])[C@H]1O[C@](CC)([C@H]2CC[C@](O)(CC)[C@H](C)O2)C[C@@H]1C.[Na+],293.15,ethanol,CCO,0.0026,0.04467605702978995,-1.3499251633489155,Lasalocid sodium,25999-20-6,6426773,No,10.1016/j.fluid.2014.04.008
CC[C@@H](C(=O)[C@@H](C)[C@@H](O)[C@H](C)CCc1ccc(C)c(O)c1C(=O)[O-])[C@H]1O[C@](CC)([C@H]2CC[C@](O)(CC)[C@H](C)O2)C[C@@H]1C.[Na+],298.15,ethanol,CCO,0.00311,0.05318777827008742,-1.274188150404995,Lasalocid sodium,25999-20-6,6426773,No,10.1016/j.fluid.2014.04.008