SMILES_Solute,Temperature_K,Solvent,SMILES_Solvent,Solubility(mole_fraction),Solubility(mol/L),LogS(mol/L),Compound_Name,CAS,PubChem_CID,FDA_Approved,Source
COc1cc(/C=C/C(=O)CC(=O)/C=C/c2ccc(O)c(OC)c2)ccc1O,283.15,ethanol,CCO,0.00048,0.00831430800083656,-2.080173891233929,Curcumin,458-37-7,969516,No,10.1016/j.molliq.2021.116795
COc1cc(/C=C/C(=O)CC(=O)/C=C/c2ccc(O)c(OC)c2)ccc1O,288.15,ethanol,CCO,0.0005600000000000001,0.009648503728629524,-2.015540030986117,Curcumin,458-37-7,969516,No,10.1016/j.molliq.2021.116795
COc1cc(/C=C/C(=O)CC(=O)/C=C/c2ccc(O)c(OC)c2)ccc1O,293.15,ethanol,CCO,0.00065,0.01114722051371204,-1.9528334075968117,Curcumin,458-37-7,969516,No,10.1016/j.molliq.2021.116795
COc1cc(/C=C/C(=O)CC(=O)/C=C/c2ccc(O)c(OC)c2)ccc1O,298.15,ethanol,CCO,0.00075,0.01279634105313731,-1.892914193445565,Curcumin,458-37-7,969516,No,10.1016/j.molliq.2021.116795
COc1cc(/C=C/C(=O)CC(=O)/C=C/c2ccc(O)c(OC)c2)ccc1O,303.15,ethanol,CCO,0.00086,0.014590115929663259,-1.835941257290029,Curcumin,458-37-7,969516,No,10.1016/j.molliq.2021.116795
COc1cc(/C=C/C(=O)CC(=O)/C=C/c2ccc(O)c(OC)c2)ccc1O,308.15,ethanol,CCO,0.00098,0.016532123250304932,-1.7816713656255219,Curcumin,458-37-7,969516,No,10.1016/j.molliq.2021.116795
COc1cc(/C=C/C(=O)CC(=O)/C=C/c2ccc(O)c(OC)c2)ccc1O,313.15,ethanol,CCO,0.00111,0.0186254844637951,-1.729892422084822,Curcumin,458-37-7,969516,No,10.1016/j.molliq.2021.116795
COc1cc(/C=C/C(=O)CC(=O)/C=C/c2ccc(O)c(OC)c2)ccc1O,318.15,ethanol,CCO,0.00127,0.021188982116515438,-1.6738899055732233,Curcumin,458-37-7,969516,No,10.1016/j.molliq.2021.116795
COc1cc(/C=C/C(=O)CC(=O)/C=C/c2ccc(O)c(OC)c2)ccc1O,323.15,ethanol,CCO,0.00145,0.024056240814630866,-1.6187722373875075,Curcumin,458-37-7,969516,No,10.1016/j.molliq.2021.116795
COc1c(N2C[C@@H]3CCCN[C@@H]3C2)c(F)cc2c(=O)c(C(=O)O)cn(C3CC3)c12,293.15,ethanol,CCO,0.0098227,0.17001559785633763,-0.769511233020616,Moxifloxacin,151096-09-2,152946,Yes,10.1016/j.molliq.2021.116814
COc1c(N2C[C@@H]3CCCN[C@@H]3C2)c(F)cc2c(=O)c(C(=O)O)cn(C3CC3)c12,298.15,ethanol,CCO,0.010795999999999998,0.18606972344924216,-0.7303242878506386,Moxifloxacin,151096-09-2,152946,Yes,10.1016/j.molliq.2021.116814
COc1c(N2C[C@@H]3CCCN[C@@H]3C2)c(F)cc2c(=O)c(C(=O)O)cn(C3CC3)c12,303.15,ethanol,CCO,0.011852,0.2033088502512362,-0.6918437156481602,Moxifloxacin,151096-09-2,152946,Yes,10.1016/j.molliq.2021.116814
COc1c(N2C[C@@H]3CCCN[C@@H]3C2)c(F)cc2c(=O)c(C(=O)O)cn(C3CC3)c12,308.15,ethanol,CCO,0.013009,0.22213012580628844,-0.653392537425464,Moxifloxacin,151096-09-2,152946,Yes,10.1016/j.molliq.2021.116814
COc1c(N2C[C@@H]3CCCN[C@@H]3C2)c(F)cc2c(=O)c(C(=O)O)cn(C3CC3)c12,313.15,ethanol,CCO,0.014295,0.24307453559122785,-0.6142605353214763,Moxifloxacin,151096-09-2,152946,Yes,10.1016/j.molliq.2021.116814
O=[N+]([O-])c1cn[nH]c1,288.15,ethanol,CCO,0.1013,1.9409903340353787,0.28802337264464833,4-nitropyrazole,2075-46-9,16376,No,10.1016/j.molliq.2021.116821
O=[N+]([O-])c1cn[nH]c1,293.15,ethanol,CCO,0.11320000000000001,2.187719283971417,0.339991594972413,4-nitropyrazole,2075-46-9,16376,No,10.1016/j.molliq.2021.116821
O=[N+]([O-])c1cn[nH]c1,298.15,ethanol,CCO,0.1276,2.4936397807451245,0.3968337175733581,4-nitropyrazole,2075-46-9,16376,No,10.1016/j.molliq.2021.116821
O=[N+]([O-])c1cn[nH]c1,303.15,ethanol,CCO,0.1472,2.9258176525081043,0.466247255836712,4-nitropyrazole,2075-46-9,16376,No,10.1016/j.molliq.2021.116821
O=[N+]([O-])c1cn[nH]c1,308.15,ethanol,CCO,0.1683,3.410312335209854,0.5327941558975928,4-nitropyrazole,2075-46-9,16376,No,10.1016/j.molliq.2021.116821
O=[N+]([O-])c1cn[nH]c1,313.15,ethanol,CCO,0.1971,4.1145981915752925,0.6143274308722612,4-nitropyrazole,2075-46-9,16376,No,10.1016/j.molliq.2021.116821
O=[N+]([O-])c1cn[nH]c1,318.15,ethanol,CCO,0.2317,5.025157401101319,0.7011496695470847,4-nitropyrazole,2075-46-9,16376,No,10.1016/j.molliq.2021.116821
O=[N+]([O-])c1cn[nH]c1,323.15,ethanol,CCO,0.2695,6.111785807584489,0.7861681256373115,4-nitropyrazole,2075-46-9,16376,No,10.1016/j.molliq.2021.116821
O=[N+]([O-])c1cn[nH]c1,328.15,ethanol,CCO,0.3102,7.404958970207564,0.8695226565018168,4-nitropyrazole,2075-46-9,16376,No,10.1016/j.molliq.2021.116821
COc1ccc(C=O)cc1O,278.15,ethanol,CCO,0.0125,0.2205368952745168,-0.6565187437303035,Isovanillin,621-59-0,12127,No,10.1016/j.molliq.2021.116847
COc1ccc(C=O)cc1O,283.15,ethanol,CCO,0.015300000000000001,0.2690071682890754,-0.5702361471094455,Isovanillin,621-59-0,12127,No,10.1016/j.molliq.2021.116847
COc1ccc(C=O)cc1O,288.15,ethanol,CCO,0.0184,0.32278395772274754,-0.49108805773440295,Isovanillin,621-59-0,12127,No,10.1016/j.molliq.2021.116847
COc1ccc(C=O)cc1O,293.15,ethanol,CCO,0.0227,0.3980785813703115,-0.4000311890145611,Isovanillin,621-59-0,12127,No,10.1016/j.molliq.2021.116847
COc1ccc(C=O)cc1O,298.15,ethanol,CCO,0.0279,0.48931886561189736,-0.3104080397618309,Isovanillin,621-59-0,12127,No,10.1016/j.molliq.2021.116847
COc1ccc(C=O)cc1O,303.15,ethanol,CCO,0.0338,0.5929748919680248,-0.22696369535511715,Isovanillin,621-59-0,12127,No,10.1016/j.molliq.2021.116847
COc1ccc(C=O)cc1O,308.15,ethanol,CCO,0.0429,0.7553995423168121,-0.12182328263973974,Isovanillin,621-59-0,12127,No,10.1016/j.molliq.2021.116847
COc1ccc(C=O)cc1O,313.15,ethanol,CCO,0.0547,0.9698843082651712,-0.01328006705188885,Isovanillin,621-59-0,12127,No,10.1016/j.molliq.2021.116847
COc1ccc(C=O)cc1O,318.15,ethanol,CCO,0.0695,1.244580224493062,0.09502289606852929,Isovanillin,621-59-0,12127,No,10.1016/j.molliq.2021.116847
CN(C)CCC=C1c2ccccc2CCc2ccccc21.Cl,278.15,ethanol,CCO,0.033710000000000004,0.607798487448502,-0.2162403850286764,Amitriptyline hydrochloride,549-18-8,11065,Yes,10.1016/j.molliq.2021.116896
CN(C)CCC=C1c2ccccc2CCc2ccccc21.Cl,283.15,ethanol,CCO,0.04227,0.7641269486436407,-0.11683448368166437,Amitriptyline hydrochloride,549-18-8,11065,Yes,10.1016/j.molliq.2021.116896
CN(C)CCC=C1c2ccccc2CCc2ccccc21.Cl,288.15,ethanol,CCO,0.052849999999999994,0.9608484569153282,-0.017345102982050074,Amitriptyline hydrochloride,549-18-8,11065,Yes,10.1016/j.molliq.2021.116896
CN(C)CCC=C1c2ccccc2CCc2ccccc21.Cl,293.15,ethanol,CCO,0.06528,1.1969319586849279,0.07806946301495994,Amitriptyline hydrochloride,549-18-8,11065,Yes,10.1016/j.molliq.2021.116896
CN(C)CCC=C1c2ccccc2CCc2ccccc21.Cl,298.15,ethanol,CCO,0.07942,1.4708454704430323,0.16756704739838346,Amitriptyline hydrochloride,549-18-8,11065,Yes,10.1016/j.molliq.2021.116896
CN(C)CCC=C1c2ccccc2CCc2ccccc21.Cl,303.15,ethanol,CCO,0.09375,1.7535166515593925,0.2439098943384354,Amitriptyline hydrochloride,549-18-8,11065,Yes,10.1016/j.molliq.2021.116896
CN(C)CCC=C1c2ccccc2CCc2ccccc21.Cl,308.15,ethanol,CCO,0.1081,2.0426138457970633,0.31018627143386635,Amitriptyline hydrochloride,549-18-8,11065,Yes,10.1016/j.molliq.2021.116896
CN(C)CCC=C1c2ccccc2CCc2ccccc21.Cl,313.15,ethanol,CCO,0.12210000000000001,2.3311642776676518,0.3675728794281945,Amitriptyline hydrochloride,549-18-8,11065,Yes,10.1016/j.molliq.2021.116896
CN(C)CCC=C1c2ccccc2CCc2ccccc21.Cl,318.15,ethanol,CCO,0.1356,2.6139627851745906,0.41729940026504203,Amitriptyline hydrochloride,549-18-8,11065,Yes,10.1016/j.molliq.2021.116896
CN(C)CCC=C1c2ccccc2CCc2ccccc21.Cl,323.15,ethanol,CCO,0.14850000000000002,2.889158564739121,0.460771377739481,Amitriptyline hydrochloride,549-18-8,11065,Yes,10.1016/j.molliq.2021.116896
CC1(C)O[C@@H]2[C@@H](CO[C@@]3(COS(N)(=O)=O)OC(C)(C)O[C@@H]23)O1,278.15,ethanol,CCO,0.01694,0.30022145695082175,-0.5225582717785276,Topiramate,97240-79-4,5284627,Yes,10.1016/j.molliq.2021.116992
CC1(C)O[C@@H]2[C@@H](CO[C@@]3(COS(N)(=O)=O)OC(C)(C)O[C@@H]23)O1,283.15,ethanol,CCO,0.02022,0.35729664743867307,-0.4469710588205531,Topiramate,97240-79-4,5284627,Yes,10.1016/j.molliq.2021.116992
CC1(C)O[C@@H]2[C@@H](CO[C@@]3(COS(N)(=O)=O)OC(C)(C)O[C@@H]23)O1,288.15,ethanol,CCO,0.025240000000000002,0.4458823899133913,-0.35077967973486424,Topiramate,97240-79-4,5284627,Yes,10.1016/j.molliq.2021.116992
CC1(C)O[C@@H]2[C@@H](CO[C@@]3(COS(N)(=O)=O)OC(C)(C)O[C@@H]23)O1,293.15,ethanol,CCO,0.031490000000000004,0.5572363052424022,-0.25396059602985,Topiramate,97240-79-4,5284627,Yes,10.1016/j.molliq.2021.116992
CC1(C)O[C@@H]2[C@@H](CO[C@@]3(COS(N)(=O)=O)OC(C)(C)O[C@@H]23)O1,298.15,ethanol,CCO,0.03902,0.6922637903979934,-0.15972838403439538,Topiramate,97240-79-4,5284627,Yes,10.1016/j.molliq.2021.116992
CC1(C)O[C@@H]2[C@@H](CO[C@@]3(COS(N)(=O)=O)OC(C)(C)O[C@@H]23)O1,303.15,ethanol,CCO,0.04777,0.8503545092063798,-0.07039998099779364,Topiramate,97240-79-4,5284627,Yes,10.1016/j.molliq.2021.116992
CC1(C)O[C@@H]2[C@@H](CO[C@@]3(COS(N)(=O)=O)OC(C)(C)O[C@@H]23)O1,308.15,ethanol,CCO,0.06279,1.1290945486572692,0.05273031060596202,Topiramate,97240-79-4,5284627,Yes,10.1016/j.molliq.2021.116992
CC1(C)O[C@@H]2[C@@H](CO[C@@]3(COS(N)(=O)=O)OC(C)(C)O[C@@H]23)O1,313.15,ethanol,CCO,0.07901,1.4379024099594973,0.1577294116002007,Topiramate,97240-79-4,5284627,Yes,10.1016/j.molliq.2021.116992
CC1(C)O[C@@H]2[C@@H](CO[C@@]3(COS(N)(=O)=O)OC(C)(C)O[C@@H]23)O1,318.15,ethanol,CCO,0.10186999999999999,1.8899989889465005,0.2764615718478086,Topiramate,97240-79-4,5284627,Yes,10.1016/j.molliq.2021.116992
CC1(C)O[C@@H]2[C@@H](CO[C@@]3(COS(N)(=O)=O)OC(C)(C)O[C@@H]23)O1,323.15,ethanol,CCO,0.12902,2.454021884526676,0.38987843136848965,Topiramate,97240-79-4,5284627,Yes,10.1016/j.molliq.2021.116992
O=[N+]([O-])c1cc[nH]n1,283.15,ethanol,CCO,0.02544,0.45194427028484274,-0.3449151151885396,3-nitro-1H-pyrazole,26621-44-3,123419,No,10.1016/j.molliq.2021.117169
O=[N+]([O-])c1cc[nH]n1,288.15,ethanol,CCO,0.02917,0.5173946216970738,-0.2861780900752599,3-nitro-1H-pyrazole,26621-44-3,123419,No,10.1016/j.molliq.2021.117169
O=[N+]([O-])c1cc[nH]n1,293.15,ethanol,CCO,0.032850000000000004,0.5821198252588639,-0.23498760969311325,3-nitro-1H-pyrazole,26621-44-3,123419,No,10.1016/j.molliq.2021.117169
O=[N+]([O-])c1cc[nH]n1,298.15,ethanol,CCO,0.03641,0.6442094551436757,-0.19097290527449362,3-nitro-1H-pyrazole,26621-44-3,123419,No,10.1016/j.molliq.2021.117169
O=[N+]([O-])c1cc[nH]n1,303.15,ethanol,CCO,0.040979999999999996,0.7243207507129547,-0.14006907272964256,3-nitro-1H-pyrazole,26621-44-3,123419,No,10.1016/j.molliq.2021.117169
O=[N+]([O-])c1cc[nH]n1,308.15,ethanol,CCO,0.04492,0.7926413749364537,-0.1009232617550401,3-nitro-1H-pyrazole,26621-44-3,123419,No,10.1016/j.molliq.2021.117169
O=[N+]([O-])c1cc[nH]n1,313.15,ethanol,CCO,0.05479,0.9715725973333418,-0.01252474272934596,3-nitro-1H-pyrazole,26621-44-3,123419,No,10.1016/j.molliq.2021.117169
O=[N+]([O-])c1cc[nH]n1,318.15,ethanol,CCO,0.05989,1.061524714038433,0.025930109708398288,3-nitro-1H-pyrazole,26621-44-3,123419,No,10.1016/j.molliq.2021.117169
O=[N+]([O-])c1cc[nH]n1,323.15,ethanol,CCO,0.06458,1.1437232925521477,0.05832096584377095,3-nitro-1H-pyrazole,26621-44-3,123419,No,10.1016/j.molliq.2021.117169
CC(C)[C@H](C)[C@@H](O)[C@H](O)[C@@H](C)[C@H]1CC[C@H]2[C@@H]3COC(=O)[C@H]4C[C@H](O)[C@H](O)C[C@]4(C)[C@H]3CC[C@]12C,278.15,ethanol,CCO,0.10472,2.0378823051767543,0.3091790983709631,Brassinolide,72962-43-7,115196,No,10.1016/j.molliq.2021.117316
CC(C)[C@H](C)[C@@H](O)[C@H](O)[C@@H](C)[C@H]1CC[C@H]2[C@@H]3COC(=O)[C@H]4C[C@H](O)[C@H](O)C[C@]4(C)[C@H]3CC[C@]12C,283.15,ethanol,CCO,0.12281,2.4239096031628886,0.38451641929804975,Brassinolide,72962-43-7,115196,No,10.1016/j.molliq.2021.117316
CC(C)[C@H](C)[C@@H](O)[C@H](O)[C@@H](C)[C@H]1CC[C@H]2[C@@H]3COC(=O)[C@H]4C[C@H](O)[C@H](O)C[C@]4(C)[C@H]3CC[C@]12C,288.15,ethanol,CCO,0.14268,2.8658193740671516,0.4572488143523337,Brassinolide,72962-43-7,115196,No,10.1016/j.molliq.2021.117316
CC(C)[C@H](C)[C@@H](O)[C@H](O)[C@@H](C)[C@H]1CC[C@H]2[C@@H]3COC(=O)[C@H]4C[C@H](O)[C@H](O)C[C@]4(C)[C@H]3CC[C@]12C,293.15,ethanol,CCO,0.16443000000000002,3.3726328866518127,0.5279690705166976,Brassinolide,72962-43-7,115196,No,10.1016/j.molliq.2021.117316
CC(C)[C@H](C)[C@@H](O)[C@H](O)[C@@H](C)[C@H]1CC[C@H]2[C@@H]3COC(=O)[C@H]4C[C@H](O)[C@H](O)C[C@]4(C)[C@H]3CC[C@]12C,298.15,ethanol,CCO,0.18911,3.97604462506855,0.5994512500492867,Brassinolide,72962-43-7,115196,No,10.1016/j.molliq.2021.117316
CC(C)[C@H](C)[C@@H](O)[C@H](O)[C@@H](C)[C@H]1CC[C@H]2[C@@H]3COC(=O)[C@H]4C[C@H](O)[C@H](O)C[C@]4(C)[C@H]3CC[C@]12C,303.15,ethanol,CCO,0.21464,4.632639642385033,0.6658285191950843,Brassinolide,72962-43-7,115196,No,10.1016/j.molliq.2021.117316
CC(C)[C@H](C)[C@@H](O)[C@H](O)[C@@H](C)[C@H]1CC[C@H]2[C@@H]3COC(=O)[C@H]4C[C@H](O)[C@H](O)C[C@]4(C)[C@H]3CC[C@]12C,308.15,ethanol,CCO,0.24315,5.4142860894425455,0.7335412000461573,Brassinolide,72962-43-7,115196,No,10.1016/j.molliq.2021.117316
CC(C)[C@H](C)[C@@H](O)[C@H](O)[C@@H](C)[C@H]1CC[C@H]2[C@@H]3COC(=O)[C@H]4C[C@H](O)[C@H](O)C[C@]4(C)[C@H]3CC[C@]12C,313.15,ethanol,CCO,0.27466,6.346818109719314,0.8025560522643067,Brassinolide,72962-43-7,115196,No,10.1016/j.molliq.2021.117316
CC(C)[C@H](C)[C@@H](O)[C@H](O)[C@@H](C)[C@H]1CC[C@H]2[C@@H]3COC(=O)[C@H]4C[C@H](O)[C@H](O)C[C@]4(C)[C@H]3CC[C@]12C,318.15,ethanol,CCO,0.30915,7.45658474191347,0.8725399578530024,Brassinolide,72962-43-7,115196,No,10.1016/j.molliq.2021.117316
CC(C)[C@H](C)[C@@H](O)[C@H](O)[C@@H](C)[C@H]1CC[C@H]2[C@@H]3COC(=O)[C@H]4C[C@H](O)[C@H](O)C[C@]4(C)[C@H]3CC[C@]12C,323.15,ethanol,CCO,0.34615,8.770326959663738,0.9430157842589594,Brassinolide,72962-43-7,115196,No,10.1016/j.molliq.2021.117316
O=C(O)c1cc(=O)[nH]c(=O)[nH]1,278.15,ethanol,CCO,1.7100000000000002e-05,0.0002979283864017522,-3.525888115548571,Orotic acid,65-86-1,967,No,10.1016/j.molliq.2021.117335
O=C(O)c1cc(=O)[nH]c(=O)[nH]1,283.15,ethanol,CCO,1.9e-05,0.0003289563033508616,-3.4828617873811933,Orotic acid,65-86-1,967,No,10.1016/j.molliq.2021.117335
O=C(O)c1cc(=O)[nH]c(=O)[nH]1,288.15,ethanol,CCO,2.09e-05,0.0003599018109491295,-3.4438159680644125,Orotic acid,65-86-1,967,No,10.1016/j.molliq.2021.117335
O=C(O)c1cc(=O)[nH]c(=O)[nH]1,293.15,ethanol,CCO,2.3199999999999998e-05,0.00039762063377219976,-3.40053108679763,Orotic acid,65-86-1,967,No,10.1016/j.molliq.2021.117335
O=C(O)c1cc(=O)[nH]c(=O)[nH]1,298.15,ethanol,CCO,2.57e-05,0.00043817034843372755,-3.358357015062217,Orotic acid,65-86-1,967,No,10.1016/j.molliq.2021.117335
O=C(O)c1cc(=O)[nH]c(=O)[nH]1,303.15,ethanol,CCO,2.86e-05,0.00048480276896031236,-3.3144349083534244,Orotic acid,65-86-1,967,No,10.1016/j.molliq.2021.117335
O=C(O)c1cc(=O)[nH]c(=O)[nH]1,308.15,ethanol,CCO,3.17e-05,0.0005342564462291131,-3.2722502290238022,Orotic acid,65-86-1,967,No,10.1016/j.molliq.2021.117335
O=C(O)c1cc(=O)[nH]c(=O)[nH]1,313.15,ethanol,CCO,3.48e-05,0.0005833062397113779,-3.2341033778341264,Orotic acid,65-86-1,967,No,10.1016/j.molliq.2021.117335
O=C(O)c1cc(=O)[nH]c(=O)[nH]1,318.15,ethanol,CCO,3.88e-05,0.0006465513837039439,-3.189396954507783,Orotic acid,65-86-1,967,No,10.1016/j.molliq.2021.117335
O=C(O)c1cc(=O)[nH]c(=O)[nH]1,323.15,ethanol,CCO,4.32e-05,0.0007157017598797681,-3.14526791487334,Orotic acid,65-86-1,967,No,10.1016/j.molliq.2021.117335
Nc1ccc(S(=O)(=O)c2ccc(N)cc2)cc1,278.15,ethanol,CCO,0.0029850000000000002,0.052161610366103,-1.2826490092562643,Dapsone,80-08-0,2955,Yes,10.1016/j.molliq.2021.117403
Nc1ccc(S(=O)(=O)c2ccc(N)cc2)cc1,283.15,ethanol,CCO,0.003418,0.05937934184162481,-1.2263646204168797,Dapsone,80-08-0,2955,Yes,10.1016/j.molliq.2021.117403
Nc1ccc(S(=O)(=O)c2ccc(N)cc2)cc1,288.15,ethanol,CCO,0.0038929999999999998,0.06729876284365396,-1.1719929193586802,Dapsone,80-08-0,2955,Yes,10.1016/j.molliq.2021.117403
Nc1ccc(S(=O)(=O)c2ccc(N)cc2)cc1,293.15,ethanol,CCO,0.004468,0.07691814333743083,-1.1139712073773984,Dapsone,80-08-0,2955,Yes,10.1016/j.molliq.2021.117403
Nc1ccc(S(=O)(=O)c2ccc(N)cc2)cc1,298.15,ethanol,CCO,0.005039,0.08634496158788647,-1.0637629993636788,Dapsone,80-08-0,2955,Yes,10.1016/j.molliq.2021.117403
Nc1ccc(S(=O)(=O)c2ccc(N)cc2)cc1,303.15,ethanol,CCO,0.005696,0.09710406963771868,-1.0127625684012878,Dapsone,80-08-0,2955,Yes,10.1016/j.molliq.2021.117403
Nc1ccc(S(=O)(=O)c2ccc(N)cc2)cc1,308.15,ethanol,CCO,0.006379999999999999,0.10821241653333499,-0.9657229044556036,Dapsone,80-08-0,2955,Yes,10.1016/j.molliq.2021.117403
Nc1ccc(S(=O)(=O)c2ccc(N)cc2)cc1,313.15,ethanol,CCO,0.007139,0.12051779985855202,-0.918948805292839,Dapsone,80-08-0,2955,Yes,10.1016/j.molliq.2021.117403
Nc1ccc(S(=O)(=O)c2ccc(N)cc2)cc1,318.15,ethanol,CCO,0.008131999999999999,0.13661486578322452,-0.8645020402126985,Dapsone,80-08-0,2955,Yes,10.1016/j.molliq.2021.117403
Nc1ccc(S(=O)(=O)c2ccc(N)cc2)cc1,323.15,ethanol,CCO,0.009091,0.1519873564242896,-0.8181925387891174,Dapsone,80-08-0,2955,Yes,10.1016/j.molliq.2021.117403
COc1cc(C=O)ccc1O,293.15,ethanol,CCO,0.0713,1.3157850174237944,0.11918493686644337,Vanillin,121-33-5,1183,No,10.1016/j.molliq.2021.117529
COc1cc(C=O)ccc1O,298.15,ethanol,CCO,0.0779,1.4403171627276388,0.15845813574506576,Vanillin,121-33-5,1183,No,10.1016/j.molliq.2021.117529
COc1cc(C=O)ccc1O,303.15,ethanol,CCO,0.08410000000000001,1.5564478514714863,0.19213457429731703,Vanillin,121-33-5,1183,No,10.1016/j.molliq.2021.117529
COc1cc(C=O)ccc1O,308.15,ethanol,CCO,0.0926,1.7198435942314645,0.23548895315709262,Vanillin,121-33-5,1183,No,10.1016/j.molliq.2021.117529
COc1cc(C=O)ccc1O,313.15,ethanol,CCO,0.105,1.9663848895105238,0.2936685282623685,Vanillin,121-33-5,1183,No,10.1016/j.molliq.2021.117529
COc1cc(C=O)ccc1O,318.15,ethanol,CCO,0.118,2.2292967922660027,0.34816789111950686,Vanillin,121-33-5,1183,No,10.1016/j.molliq.2021.117529
COc1cc(C=O)ccc1O,323.15,ethanol,CCO,0.141,2.7192899975339415,0.4344555252090072,Vanillin,121-33-5,1183,No,10.1016/j.molliq.2021.117529
Cn1cc[nH]c1=S,278.15,ethanol,CCO,0.0275,0.49266468378805933,-0.3074485686073449,Methimazole,60-56-0,1349907,No,10.1016/j.molliq.2021.117546
Cn1cc[nH]c1=S,283.15,ethanol,CCO,0.0335,0.6000940333578447,-0.22178069133529632,Methimazole,60-56-0,1349907,No,10.1016/j.molliq.2021.117546
Cn1cc[nH]c1=S,288.15,ethanol,CCO,0.0417,0.7493129455896232,-0.12533676419948095,Methimazole,60-56-0,1349907,No,10.1016/j.molliq.2021.117546
Cn1cc[nH]c1=S,293.15,ethanol,CCO,0.0519,0.9381754491616836,-0.02771593616515005,Methimazole,60-56-0,1349907,No,10.1016/j.molliq.2021.117546
Cn1cc[nH]c1=S,298.15,ethanol,CCO,0.0645,1.175478318088596,0.07021462289411651,Methimazole,60-56-0,1349907,No,10.1016/j.molliq.2021.117546
Cn1cc[nH]c1=S,303.15,ethanol,CCO,0.0795,1.4639625711280753,0.1655299733341659,Methimazole,60-56-0,1349907,No,10.1016/j.molliq.2021.117546
Cn1cc[nH]c1=S,308.15,ethanol,CCO,0.0968,1.8062096980458373,0.25676816979663825,Methimazole,60-56-0,1349907,No,10.1016/j.molliq.2021.117546
Cn1cc[nH]c1=S,313.15,ethanol,CCO,0.1168,2.216593456800726,0.3456860468995995,Methimazole,60-56-0,1349907,No,10.1016/j.molliq.2021.117546
Cn1cc[nH]c1=S,318.15,ethanol,CCO,0.139,2.6900857117091617,0.42976611774564155,Methimazole,60-56-0,1349907,No,10.1016/j.molliq.2021.117546
Cn1cc[nH]c1=S,323.15,ethanol,CCO,0.1671,3.323633779156861,0.5216131641934524,Methimazole,60-56-0,1349907,No,10.1016/j.molliq.2021.117546
CC(=O)Nc1ccc(CC(=O)O)cc1,278.15,ethanol,CCO,0.006201,0.10871050757767417,-0.9637284764982995,Actarit,18699-02-0,2018,No,10.1016/j.molliq.2021.117965
CC(=O)Nc1ccc(CC(=O)O)cc1,283.15,ethanol,CCO,0.007228,0.12605061937118203,-0.8994550160024044,Actarit,18699-02-0,2018,No,10.1016/j.molliq.2021.117965
CC(=O)Nc1ccc(CC(=O)O)cc1,288.15,ethanol,CCO,0.008511,0.1478159705140354,-0.8302786408301214,Actarit,18699-02-0,2018,No,10.1016/j.molliq.2021.117965
CC(=O)Nc1ccc(CC(=O)O)cc1,293.15,ethanol,CCO,0.01016,0.17591365842349313,-0.7547004394074122,Actarit,18699-02-0,2018,No,10.1016/j.molliq.2021.117965
CC(=O)Nc1ccc(CC(=O)O)cc1,298.15,ethanol,CCO,0.01207,0.20829545633662822,-0.6813202034533681,Actarit,18699-02-0,2018,No,10.1016/j.molliq.2021.117965
CC(=O)Nc1ccc(CC(=O)O)cc1,303.15,ethanol,CCO,0.014339999999999999,0.24660884913576991,-0.6079913435477422,Actarit,18699-02-0,2018,No,10.1016/j.molliq.2021.117965
CC(=O)Nc1ccc(CC(=O)O)cc1,308.15,ethanol,CCO,0.01706,0.2925019458367971,-0.5338712404762527,Actarit,18699-02-0,2018,No,10.1016/j.molliq.2021.117965
CC(=O)Nc1ccc(CC(=O)O)cc1,313.15,ethanol,CCO,0.020099999999999996,0.34380846412753063,-0.46368343573904197,Actarit,18699-02-0,2018,No,10.1016/j.molliq.2021.117965
CC(=O)Nc1ccc(CC(=O)O)cc1,318.15,ethanol,CCO,0.023849999999999996,0.40712361458991825,-0.39027370629499164,Actarit,18699-02-0,2018,No,10.1016/j.molliq.2021.117965