SMILES_Solute,Temperature_K,Solvent,SMILES_Solvent,Solubility(mole_fraction),Solubility(mol/L),LogS(mol/L),Compound_Name,CAS,PubChem_CID,FDA_Approved,Source
CC(=CC(C)=Nc1c(C)cc(C)cc1C)Nc1c(C)cc(C)cc1C,273.15,ethanol,CCO,0.0028499999999999997,0.05006686631535904,-1.3004495902375472,"2,4,6-trimethyl-N-[4-(2,4,6-trimethylphenyl)iminopent-2-en-2-yl]aniline",,,No,10.1016/j.molliq.2022.121143
CC(=CC(C)=Nc1c(C)cc(C)cc1C)Nc1c(C)cc(C)cc1C,278.15,ethanol,CCO,0.00317,0.0554046875431089,-1.2564534900010906,"2,4,6-trimethyl-N-[4-(2,4,6-trimethylphenyl)iminopent-2-en-2-yl]aniline",,,No,10.1016/j.molliq.2022.121143
CC(=CC(C)=Nc1c(C)cc(C)cc1C)Nc1c(C)cc(C)cc1C,283.15,ethanol,CCO,0.00373,0.06481986749340804,-1.1882918610998676,"2,4,6-trimethyl-N-[4-(2,4,6-trimethylphenyl)iminopent-2-en-2-yl]aniline",,,No,10.1016/j.molliq.2022.121143
CC(=CC(C)=Nc1c(C)cc(C)cc1C)Nc1c(C)cc(C)cc1C,288.15,ethanol,CCO,0.00471,0.08148917772065432,-1.0889000644905296,"2,4,6-trimethyl-N-[4-(2,4,6-trimethylphenyl)iminopent-2-en-2-yl]aniline",,,No,10.1016/j.molliq.2022.121143
CC(=CC(C)=Nc1c(C)cc(C)cc1C)Nc1c(C)cc(C)cc1C,293.15,ethanol,CCO,0.00561,0.09668897707264107,-1.014623034390584,"2,4,6-trimethyl-N-[4-(2,4,6-trimethylphenyl)iminopent-2-en-2-yl]aniline",,,No,10.1016/j.molliq.2022.121143
CC(=CC(C)=Nc1c(C)cc(C)cc1C)Nc1c(C)cc(C)cc1C,298.15,ethanol,CCO,0.0067800000000000004,0.11638122865832445,-0.9341170621906077,"2,4,6-trimethyl-N-[4-(2,4,6-trimethylphenyl)iminopent-2-en-2-yl]aniline",,,No,10.1016/j.molliq.2022.121143
CC(=CC(C)=Nc1c(C)cc(C)cc1C)Nc1c(C)cc(C)cc1C,303.15,ethanol,CCO,0.00849,0.14514337888017198,-0.8382027709338691,"2,4,6-trimethyl-N-[4-(2,4,6-trimethylphenyl)iminopent-2-en-2-yl]aniline",,,No,10.1016/j.molliq.2022.121143
CCCN(CCc1cccs1)[C@H]1CCc2c(O)cccc2C1,278.15,ethanol,CCO,0.0023599999999999997,0.041214164182451496,-1.3849535031629905,Rotigotine,99755-59-6,59227,Yes,10.1016/j.molliq.2023.121532
CCCN(CCc1cccs1)[C@H]1CCc2c(O)cccc2C1,283.15,ethanol,CCO,0.00398,0.06918172281790842,-1.1600086270427528,Rotigotine,99755-59-6,59227,Yes,10.1016/j.molliq.2023.121532
CCCN(CCc1cccs1)[C@H]1CCc2c(O)cccc2C1,288.15,ethanol,CCO,0.00677,0.11737281185678096,-0.9304324910613695,Rotigotine,99755-59-6,59227,Yes,10.1016/j.molliq.2023.121532
CCCN(CCc1cccs1)[C@H]1CCc2c(O)cccc2C1,293.15,ethanol,CCO,0.00912,0.15774101398888404,-0.802055371774469,Rotigotine,99755-59-6,59227,Yes,10.1016/j.molliq.2023.121532
CCCN(CCc1cccs1)[C@H]1CCc2c(O)cccc2C1,298.15,ethanol,CCO,0.011970000000000001,0.206548820385682,-0.6849772809655454,Rotigotine,99755-59-6,59227,Yes,10.1016/j.molliq.2023.121532
CCCN(CCc1cccs1)[C@H]1CCc2c(O)cccc2C1,303.15,ethanol,CCO,0.01831,0.3161554077870889,-0.5000993852503962,Rotigotine,99755-59-6,59227,Yes,10.1016/j.molliq.2023.121532
CCCN(CCc1cccs1)[C@H]1CCc2c(O)cccc2C1,308.15,ethanol,CCO,0.02388,0.41229479548780895,-0.3847921473844083,Rotigotine,99755-59-6,59227,Yes,10.1016/j.molliq.2023.121532
CCCN(CCc1cccs1)[C@H]1CCc2c(O)cccc2C1,313.15,ethanol,CCO,0.03449,0.598740564755563,-0.2227613173467011,Rotigotine,99755-59-6,59227,Yes,10.1016/j.molliq.2023.121532
NC(=O)c1nc(F)cnc1O,293.15,ethanol,CCO,0.00206,0.0353780297104018,-1.4512663576820175,Favipiravir,259793-96-9,492405,No,10.1016/j.molliq.2023.122208
NC(=O)c1nc(F)cnc1O,298.15,ethanol,CCO,0.0023799999999999997,0.04067340301609423,-1.3906894900177451,Favipiravir,259793-96-9,492405,No,10.1016/j.molliq.2023.122208
NC(=O)c1nc(F)cnc1O,303.15,ethanol,CCO,0.00252,0.042823581056248554,-1.3683170183134317,Favipiravir,259793-96-9,492405,No,10.1016/j.molliq.2023.122208
NC(=O)c1nc(F)cnc1O,308.15,ethanol,CCO,0.00279,0.04715137042241709,-1.3265056802703543,Favipiravir,259793-96-9,492405,No,10.1016/j.molliq.2023.122208
NC(=O)c1nc(F)cnc1O,313.15,ethanol,CCO,0.00318,0.05347030255293646,-1.2718873585086168,Favipiravir,259793-96-9,492405,No,10.1016/j.molliq.2023.122208
NC(=O)c1nc(F)cnc1O,318.15,ethanol,CCO,0.0033900000000000002,0.056679880582798596,-1.2465710734260989,Favipiravir,259793-96-9,492405,No,10.1016/j.molliq.2023.122208
NC(=O)c1nc(F)cnc1O,323.15,ethanol,CCO,0.00366,0.060855956879105604,-1.2156969044823183,Favipiravir,259793-96-9,492405,No,10.1016/j.molliq.2023.122208
NC(=O)c1nc(F)cnc1O,328.15,ethanol,CCO,0.00395,0.0653010265976599,-1.1850799911262393,Favipiravir,259793-96-9,492405,No,10.1016/j.molliq.2023.122208
NC(=O)c1nc(F)cnc1O,333.15,ethanol,CCO,0.00458,0.07534457892033179,-1.1229479899277433,Favipiravir,259793-96-9,492405,No,10.1016/j.molliq.2023.122208
O=C1O[C@H](CO)[C@@H](O)[C@H](O)[C@H]1O,288.15,ethanol,CCO,0.00043109999999999996,0.007426667090175497,-2.129206043452144,"1,5-gluconolactone",90-80-2,7027,Yes,10.1016/j.molliq.2023.122313
O=C1O[C@H](CO)[C@@H](O)[C@H](O)[C@H]1O,293.15,ethanol,CCO,0.0005834,0.010004392424399778,-1.9998092813149044,"1,5-gluconolactone",90-80-2,7027,Yes,10.1016/j.molliq.2023.122313
O=C1O[C@H](CO)[C@@H](O)[C@H](O)[C@H]1O,298.15,ethanol,CCO,0.0007023,0.011981921795513146,-1.9214735193215124,"1,5-gluconolactone",90-80-2,7027,Yes,10.1016/j.molliq.2023.122313
O=C1O[C@H](CO)[C@@H](O)[C@H](O)[C@H]1O,303.15,ethanol,CCO,0.0008068999999999999,0.013688533610488617,-1.8636430733402995,"1,5-gluconolactone",90-80-2,7027,Yes,10.1016/j.molliq.2023.122313
O=C1O[C@H](CO)[C@@H](O)[C@H](O)[C@H]1O,308.15,ethanol,CCO,0.0009015999999999999,0.015208359885230584,-1.8179176190305355,"1,5-gluconolactone",90-80-2,7027,Yes,10.1016/j.molliq.2023.122313
O=C1O[C@H](CO)[C@@H](O)[C@H](O)[C@H]1O,313.15,ethanol,CCO,0.0011905,0.019977861585276698,-1.699451000164908,"1,5-gluconolactone",90-80-2,7027,Yes,10.1016/j.molliq.2023.122313
O=C1O[C@H](CO)[C@@H](O)[C@H](O)[C@H]1O,318.15,ethanol,CCO,0.0015097,0.025194240676882727,-1.5986987262071681,"1,5-gluconolactone",90-80-2,7027,Yes,10.1016/j.molliq.2023.122313
O=C1O[C@H](CO)[C@@H](O)[C@H](O)[C@H]1O,323.15,ethanol,CCO,0.0017671,0.0293264047297815,-1.5327411760826326,"1,5-gluconolactone",90-80-2,7027,Yes,10.1016/j.molliq.2023.122313
O=C1O[C@H](CO)[C@@H](O)[C@H](O)[C@H]1O,328.15,ethanol,CCO,0.0020731,0.03420783392749288,-1.4658744248830475,"1,5-gluconolactone",90-80-2,7027,Yes,10.1016/j.molliq.2023.122313
COc1cc(C=O)ccc1O,283.15,ethanol,CCO,0.06731,1.2494492771400716,0.09671863012608882,Vanillin,121-33-5,1183,No,10.1016/j.molliq.2023.122710
COc1cc(C=O)ccc1O,288.15,ethanol,CCO,0.0698,1.2921346015154116,0.11130775642267184,Vanillin,121-33-5,1183,No,10.1016/j.molliq.2023.122710
COc1cc(C=O)ccc1O,293.15,ethanol,CCO,0.07341,1.3578083270817785,0.13283846776050912,Vanillin,121-33-5,1183,No,10.1016/j.molliq.2023.122710
COc1cc(C=O)ccc1O,298.15,ethanol,CCO,0.07854,1.4531589113561365,0.1623131095157682,Vanillin,121-33-5,1183,No,10.1016/j.molliq.2023.122710
COc1cc(C=O)ccc1O,303.15,ethanol,CCO,0.08202999999999999,1.514714771686472,0.18033086072949603,Vanillin,121-33-5,1183,No,10.1016/j.molliq.2023.122710
COc1cc(C=O)ccc1O,308.15,ethanol,CCO,0.08541,1.573834331402955,0.19695901471668148,Vanillin,121-33-5,1183,No,10.1016/j.molliq.2023.122710
COc1cc(C=O)ccc1O,313.15,ethanol,CCO,0.09021000000000001,1.661941713289736,0.22061578837677867,Vanillin,121-33-5,1183,No,10.1016/j.molliq.2023.122710
COc1cc(C=O)ccc1O,318.15,ethanol,CCO,0.09380000000000001,1.7247781806223235,0.2367332494810987,Vanillin,121-33-5,1183,No,10.1016/j.molliq.2023.122710
COc1cc(C=O)ccc1O,323.15,ethanol,CCO,0.09853999999999999,1.810905023817614,0.25789567355339754,Vanillin,121-33-5,1183,No,10.1016/j.molliq.2023.122710
O=C(O)/C=C/c1ccc(O)cc1,283.15,ethanol,CCO,0.03582,0.643196722655353,-0.19165617715811528,p-coumaric acid,501-98-4,637542,No,10.1016/j.molliq.2023.122710
O=C(O)/C=C/c1ccc(O)cc1,288.15,ethanol,CCO,0.03805,0.6811312894138093,-0.1667691688913203,p-coumaric acid,501-98-4,637542,No,10.1016/j.molliq.2023.122710
O=C(O)/C=C/c1ccc(O)cc1,293.15,ethanol,CCO,0.04143,0.7407334431790076,-0.130338047058651,p-coumaric acid,501-98-4,637542,No,10.1016/j.molliq.2023.122710
O=C(O)/C=C/c1ccc(O)cc1,298.15,ethanol,CCO,0.046119999999999994,0.8243169985514104,-0.08390574431381279,p-coumaric acid,501-98-4,637542,No,10.1016/j.molliq.2023.122710
O=C(O)/C=C/c1ccc(O)cc1,303.15,ethanol,CCO,0.05141,0.9186618878698498,-0.0368443006391748,p-coumaric acid,501-98-4,637542,No,10.1016/j.molliq.2023.122710
O=C(O)/C=C/c1ccc(O)cc1,308.15,ethanol,CCO,0.055920000000000004,0.9982403183485163,-0.0007648932129687208,p-coumaric acid,501-98-4,637542,No,10.1016/j.molliq.2023.122710
O=C(O)/C=C/c1ccc(O)cc1,313.15,ethanol,CCO,0.062090000000000006,1.1095905721666774,0.04516275802072333,p-coumaric acid,501-98-4,637542,No,10.1016/j.molliq.2023.122710
O=C(O)/C=C/c1ccc(O)cc1,318.15,ethanol,CCO,0.06755,1.2071306274076168,0.08175426901424675,p-coumaric acid,501-98-4,637542,No,10.1016/j.molliq.2023.122710
O=C(O)/C=C/c1ccc(O)cc1,323.15,ethanol,CCO,0.07349,1.3140373588969916,0.11860771266072637,p-coumaric acid,501-98-4,637542,No,10.1016/j.molliq.2023.122710
O=C(O)/C=C/c1ccccc1,283.15,ethanol,CCO,0.0519,0.9477407868423264,-0.02331042873533077,trans-cinnamic acid,140-10-3,444539,No,10.1016/j.molliq.2023.122710
O=C(O)/C=C/c1ccccc1,288.15,ethanol,CCO,0.057699999999999994,1.054424020802906,0.023015291012572534,trans-cinnamic acid,140-10-3,444539,No,10.1016/j.molliq.2023.122710
O=C(O)/C=C/c1ccccc1,293.15,ethanol,CCO,0.0668,1.2267966599644875,0.08877258491644148,trans-cinnamic acid,140-10-3,444539,No,10.1016/j.molliq.2023.122710
O=C(O)/C=C/c1ccccc1,298.15,ethanol,CCO,0.0703,1.2891729790305493,0.11031119415575591,trans-cinnamic acid,140-10-3,444539,No,10.1016/j.molliq.2023.122710
O=C(O)/C=C/c1ccccc1,303.15,ethanol,CCO,0.08109999999999999,1.4960263404804783,0.1749392402026499,trans-cinnamic acid,140-10-3,444539,No,10.1016/j.molliq.2023.122710
O=C(O)/C=C/c1ccccc1,308.15,ethanol,CCO,0.0895,1.6566082757534066,0.21921982659012926,trans-cinnamic acid,140-10-3,444539,No,10.1016/j.molliq.2023.122710
O=C(O)/C=C/c1ccccc1,313.15,ethanol,CCO,0.09789999999999999,1.818989840756297,0.2598302734913002,trans-cinnamic acid,140-10-3,444539,No,10.1016/j.molliq.2023.122710
O=C(O)/C=C/c1ccccc1,318.15,ethanol,CCO,0.111,2.080538164729235,0.3181756867616449,trans-cinnamic acid,140-10-3,444539,No,10.1016/j.molliq.2023.122710
O=C(O)/C=C/c1ccccc1,323.15,ethanol,CCO,0.1225,2.312695950500114,0.36411853994755916,trans-cinnamic acid,140-10-3,444539,No,10.1016/j.molliq.2023.122710
N[C@@H](Cc1c[nH]c2ccccc12)C(=O)O,288.15,ethanol,CCO,0.00014199999999999998,0.0024455620563278765,-2.6116213124465335,L-tryptophan,73-22-3,6305,Yes,10.1016/j.molliq.2023.122852
N[C@@H](Cc1c[nH]c2ccccc12)C(=O)O,293.15,ethanol,CCO,0.000178,0.003051182368965224,-2.5155318338298067,L-tryptophan,73-22-3,6305,Yes,10.1016/j.molliq.2023.122852
N[C@@H](Cc1c[nH]c2ccccc12)C(=O)O,298.15,ethanol,CCO,0.00020899999999999998,0.0035639841442136316,-2.4480642367608203,L-tryptophan,73-22-3,6305,Yes,10.1016/j.molliq.2023.122852
N[C@@H](Cc1c[nH]c2ccccc12)C(=O)O,303.15,ethanol,CCO,0.000246,0.004170888636012695,-2.3797714057933055,L-tryptophan,73-22-3,6305,Yes,10.1016/j.molliq.2023.122852
N[C@@H](Cc1c[nH]c2ccccc12)C(=O)O,308.15,ethanol,CCO,0.00028399999999999996,0.004787606397097976,-2.319881561397401,L-tryptophan,73-22-3,6305,Yes,10.1016/j.molliq.2023.122852
N[C@@H](Cc1cnc[nH]1)C(=O)O,288.15,ethanol,CCO,1.6e-05,0.0002755215673891208,-3.559844399601766,L-histidine,71-00-1,6274,No,10.1016/j.molliq.2023.122852
N[C@@H](Cc1cnc[nH]1)C(=O)O,293.15,ethanol,CCO,2e-05,0.0003427753115178651,-3.4649904657969097,L-histidine,71-00-1,6274,No,10.1016/j.molliq.2023.122852
N[C@@H](Cc1cnc[nH]1)C(=O)O,298.15,ethanol,CCO,2.8e-05,0.0004773851352180911,-3.3211311081471635,L-histidine,71-00-1,6274,No,10.1016/j.molliq.2023.122852
N[C@@H](Cc1cnc[nH]1)C(=O)O,303.15,ethanol,CCO,3.1e-05,0.0005254867800074782,-3.2794382053103766,L-histidine,71-00-1,6274,No,10.1016/j.molliq.2023.122852
N[C@@H](Cc1cnc[nH]1)C(=O)O,308.15,ethanol,CCO,3.9e-05,0.0006572919088857382,-3.182241713753261,L-histidine,71-00-1,6274,No,10.1016/j.molliq.2023.122852
O=C1CCCCCCCCCCC1,278.15,ethanol,CCO,0.0472,0.8630751208014464,-0.06395140228049549,Cyclododecanone,830-13-7,13246,No,10.1016/j.molliq.2023.122857
O=C1CCCCCCCCCCC1,283.15,ethanol,CCO,0.0701,1.305143095635352,0.11565813024738414,Cyclododecanone,830-13-7,13246,No,10.1016/j.molliq.2023.122857
O=C1CCCCCCCCCCC1,288.15,ethanol,CCO,0.0949,1.805503424571846,0.25659831650765025,Cyclododecanone,830-13-7,13246,No,10.1016/j.molliq.2023.122857
O=C1CCCCCCCCCCC1,293.15,ethanol,CCO,0.1274,2.5022175851410875,0.3983250719111412,Cyclododecanone,830-13-7,13246,No,10.1016/j.molliq.2023.122857
O=C1CCCCCCCCCCC1,298.15,ethanol,CCO,0.1826,3.808595412112626,0.5807648399175829,Cyclododecanone,830-13-7,13246,No,10.1016/j.molliq.2023.122857
O=C1CCCCCCCCCCC1,303.15,ethanol,CCO,0.2426,5.429403683822265,0.7347521332634758,Cyclododecanone,830-13-7,13246,No,10.1016/j.molliq.2023.122857
O=C1CCCCCCCCCCC1,308.15,ethanol,CCO,0.3477,8.983261738310558,0.9534340535659269,Cyclododecanone,830-13-7,13246,No,10.1016/j.molliq.2023.122857
O=C1CCCCCCCCCCC1,313.15,ethanol,CCO,0.4606,14.31249196986334,1.1557152560196824,Cyclododecanone,830-13-7,13246,No,10.1016/j.molliq.2023.122857
CN1CCOC(c2ccccc2)c2ccccc2C1.Cl,273.15,ethanol,CCO,0.00136,0.023855910359158624,-1.6224040057906408,Nefopam hydrochloride,23327-57-3,155290,Yes,10.1016/j.molliq.2023.123074
CN1CCOC(c2ccccc2)c2ccccc2C1.Cl,278.15,ethanol,CCO,0.00163,0.028444901193444838,-1.5459955704641903,Nefopam hydrochloride,23327-57-3,155290,Yes,10.1016/j.molliq.2023.123074
CN1CCOC(c2ccccc2)c2ccccc2C1.Cl,283.15,ethanol,CCO,0.00198,0.034348067346956127,-1.4640976942424342,Nefopam hydrochloride,23327-57-3,155290,Yes,10.1016/j.molliq.2023.123074
CN1CCOC(c2ccccc2)c2ccccc2C1.Cl,288.15,ethanol,CCO,0.00247,0.0426382779740199,-1.3702003434158798,Nefopam hydrochloride,23327-57-3,155290,Yes,10.1016/j.molliq.2023.123074
CN1CCOC(c2ccccc2)c2ccccc2C1.Cl,293.15,ethanol,CCO,0.0029,0.049845979462127196,-1.3023698657942508,Nefopam hydrochloride,23327-57-3,155290,Yes,10.1016/j.molliq.2023.123074
CN1CCOC(c2ccccc2)c2ccccc2C1.Cl,298.15,ethanol,CCO,0.00337,0.05764938054184058,-1.2392053549556792,Nefopam hydrochloride,23327-57-3,155290,Yes,10.1016/j.molliq.2023.123074
CN1CCOC(c2ccccc2)c2ccccc2C1.Cl,303.15,ethanol,CCO,0.00402,0.06841669218217032,-1.1648379269612115,Nefopam hydrochloride,23327-57-3,155290,Yes,10.1016/j.molliq.2023.123074
CN1CCOC(c2ccccc2)c2ccccc2C1.Cl,308.15,ethanol,CCO,0.00473,0.08009344400014914,-1.0964030313700037,Nefopam hydrochloride,23327-57-3,155290,Yes,10.1016/j.molliq.2023.123074
CN1CCOC(c2ccccc2)c2ccccc2C1.Cl,313.15,ethanol,CCO,0.00559,0.0942211909475456,-1.0258514106191345,Nefopam hydrochloride,23327-57-3,155290,Yes,10.1016/j.molliq.2023.123074
CN1CCOC(c2ccccc2)c2ccccc2C1.Cl,318.15,ethanol,CCO,0.00654,0.10969373687724616,-0.9598181683897583,Nefopam hydrochloride,23327-57-3,155290,Yes,10.1016/j.molliq.2023.123074
CN1CCOC(c2ccccc2)c2ccccc2C1.Cl,323.15,ethanol,CCO,0.00795,0.13275874662902817,-0.8769368564040358,Nefopam hydrochloride,23327-57-3,155290,Yes,10.1016/j.molliq.2023.123074
COc1c(C(C)(C)C)cc([N+](=O)[O-])c(C)c1[N+](=O)[O-],278.15,ethanol,CCO,0.003589,0.06275427153461675,-1.2023567074441255,"4-tert-butyl-2,6-dinitro-3-methoxytoluene",83-66-9,6753,No,10.1016/j.molliq.2023.123561
COc1c(C(C)(C)C)cc([N+](=O)[O-])c(C)c1[N+](=O)[O-],283.15,ethanol,CCO,0.004599,0.07999110512298,-1.096958303142786,"4-tert-butyl-2,6-dinitro-3-methoxytoluene",83-66-9,6753,No,10.1016/j.molliq.2023.123561
COc1c(C(C)(C)C)cc([N+](=O)[O-])c(C)c1[N+](=O)[O-],288.15,ethanol,CCO,0.0059370000000000004,0.10284467466124389,-0.9878181913305889,"4-tert-butyl-2,6-dinitro-3-methoxytoluene",83-66-9,6753,No,10.1016/j.molliq.2023.123561
COc1c(C(C)(C)C)cc([N+](=O)[O-])c(C)c1[N+](=O)[O-],293.15,ethanol,CCO,0.00791,0.13664579257184484,-0.8644037360237311,"4-tert-butyl-2,6-dinitro-3-methoxytoluene",83-66-9,6753,No,10.1016/j.molliq.2023.123561
COc1c(C(C)(C)C)cc([N+](=O)[O-])c(C)c1[N+](=O)[O-],298.15,ethanol,CCO,0.009917,0.17076836081863134,-0.7675925902905196,"4-tert-butyl-2,6-dinitro-3-methoxytoluene",83-66-9,6753,No,10.1016/j.molliq.2023.123561
COc1c(C(C)(C)C)cc([N+](=O)[O-])c(C)c1[N+](=O)[O-],303.15,ethanol,CCO,0.013122,0.22538406285650578,-0.647076796622571,"4-tert-butyl-2,6-dinitro-3-methoxytoluene",83-66-9,6753,No,10.1016/j.molliq.2023.123561
COc1c(C(C)(C)C)cc([N+](=O)[O-])c(C)c1[N+](=O)[O-],308.15,ethanol,CCO,0.016446000000000002,0.281798591701905,-0.5500611816227582,"4-tert-butyl-2,6-dinitro-3-methoxytoluene",83-66-9,6753,No,10.1016/j.molliq.2023.123561
COc1c(C(C)(C)C)cc([N+](=O)[O-])c(C)c1[N+](=O)[O-],313.15,ethanol,CCO,0.021532,0.36884169460287325,-0.43315999132652355,"4-tert-butyl-2,6-dinitro-3-methoxytoluene",83-66-9,6753,No,10.1016/j.molliq.2023.123561
COc1c(C(C)(C)C)cc([N+](=O)[O-])c(C)c1[N+](=O)[O-],318.15,ethanol,CCO,0.027645,0.47374671490973724,-0.3244537885310379,"4-tert-butyl-2,6-dinitro-3-methoxytoluene",83-66-9,6753,No,10.1016/j.molliq.2023.123561
C=C1C[C@]23C[C@@]1(O)CC[C@H]2[C@@]12C=C[C@H](O)[C@@](C)(C(=O)O1)[C@H]2[C@@H]3C(=O)O,278.15,ethanol,CCO,0.18059999999999998,3.8399903583593367,0.5843301339205013,Gibberellin a3,77-06-5,6466,No,10.1016/j.molliq.2023.123775
C=C1C[C@]23C[C@@]1(O)CC[C@H]2[C@@]12C=C[C@H](O)[C@@](C)(C(=O)O1)[C@H]2[C@@H]3C(=O)O,283.15,ethanol,CCO,0.2054,4.475362706386365,0.6508282385343455,Gibberellin a3,77-06-5,6466,No,10.1016/j.molliq.2023.123775
C=C1C[C@]23C[C@@]1(O)CC[C@H]2[C@@]12C=C[C@H](O)[C@@](C)(C(=O)O1)[C@H]2[C@@H]3C(=O)O,288.15,ethanol,CCO,0.2311,5.17557675372921,0.7139587535502112,Gibberellin a3,77-06-5,6466,No,10.1016/j.molliq.2023.123775
C=C1C[C@]23C[C@@]1(O)CC[C@H]2[C@@]12C=C[C@H](O)[C@@](C)(C(=O)O1)[C@H]2[C@@H]3C(=O)O,293.15,ethanol,CCO,0.2568,5.921887749178402,0.7724601709738411,Gibberellin a3,77-06-5,6466,No,10.1016/j.molliq.2023.123775
C=C1C[C@]23C[C@@]1(O)CC[C@H]2[C@@]12C=C[C@H](O)[C@@](C)(C(=O)O1)[C@H]2[C@@H]3C(=O)O,298.15,ethanol,CCO,0.2842,6.76910233250656,0.8305310796323427,Gibberellin a3,77-06-5,6466,No,10.1016/j.molliq.2023.123775
C=C1C[C@]23C[C@@]1(O)CC[C@H]2[C@@]12C=C[C@H](O)[C@@](C)(C(=O)O1)[C@H]2[C@@H]3C(=O)O,303.15,ethanol,CCO,0.3124,7.7012601592337955,0.886561794707977,Gibberellin a3,77-06-5,6466,No,10.1016/j.molliq.2023.123775
C=C1C[C@]23C[C@@]1(O)CC[C@H]2[C@@]12C=C[C@H](O)[C@@](C)(C(=O)O1)[C@H]2[C@@H]3C(=O)O,308.15,ethanol,CCO,0.3436,8.821883620003588,0.9455613241833053,Gibberellin a3,77-06-5,6466,No,10.1016/j.molliq.2023.123775
C=C1C[C@]23C[C@@]1(O)CC[C@H]2[C@@]12C=C[C@H](O)[C@@](C)(C(=O)O1)[C@H]2[C@@H]3C(=O)O,313.15,ethanol,CCO,0.3738,10.005262751450706,1.0002284982702594,Gibberellin a3,77-06-5,6466,No,10.1016/j.molliq.2023.123775
C=C1C[C@]23C[C@@]1(O)CC[C@H]2[C@@]12C=C[C@H](O)[C@@](C)(C(=O)O1)[C@H]2[C@@H]3C(=O)O,318.15,ethanol,CCO,0.4044,11.313863292718233,1.0536109267840261,Gibberellin a3,77-06-5,6466,No,10.1016/j.molliq.2023.123775
C=C1C[C@]23C[C@@]1(O)CC[C@H]2[C@@]12C=C[C@H](O)[C@@](C)(C(=O)O1)[C@H]2[C@@H]3C(=O)O,323.15,ethanol,CCO,0.43799999999999994,12.911222675502447,1.110967371319908,Gibberellin a3,77-06-5,6466,No,10.1016/j.molliq.2023.123775
Nc1cccc2ccccc12,273.15,ethanol,CCO,0.1331,2.6895219675028996,0.42967509586691727,1-naphthylamine,134-32-7,8640,No,10.1016/j.molliq.2024.124760
Nc1cccc2ccccc12,278.15,ethanol,CCO,0.1761,3.7238587612204763,0.5709932006697233,1-naphthylamine,134-32-7,8640,No,10.1016/j.molliq.2024.124760
Nc1cccc2ccccc12,283.15,ethanol,CCO,0.2314,5.212419183622036,0.7170393344798309,1-naphthylamine,134-32-7,8640,No,10.1016/j.molliq.2024.124760
Nc1cccc2ccccc12,288.15,ethanol,CCO,0.3228,8.208149267149379,0.9142452455881436,1-naphthylamine,134-32-7,8640,No,10.1016/j.molliq.2024.124760
Nc1cccc2ccccc12,293.15,ethanol,CCO,0.4309,12.976535555738307,1.1131587610426537,1-naphthylamine,134-32-7,8640,No,10.1016/j.molliq.2024.124760
Nc1cccc2ccccc12,298.15,ethanol,CCO,0.5547,21.23753809233815,1.3271041708424898,1-naphthylamine,134-32-7,8640,No,10.1016/j.molliq.2024.124760
Nc1cccc2ccccc12,303.15,ethanol,CCO,0.6981,39.195947067632495,1.5932411625010237,1-naphthylamine,134-32-7,8640,No,10.1016/j.molliq.2024.124760
Nc1cccc2ccccc12,308.15,ethanol,CCO,0.8333,84.24468745357488,1.9255425234028052,1-naphthylamine,134-32-7,8640,No,10.1016/j.molliq.2024.124760