SMILES_Solute,Temperature_K,Solvent,SMILES_Solvent,Solubility(mole_fraction),Solubility(mol/L),LogS(mol/L),Compound_Name,CAS,PubChem_CID,FDA_Approved,Source
O=[N+]([O-])c1cc([N+](=O)[O-])c(-c2nnc(-c3nnc(-c4c([N+](=O)[O-])cc([N+](=O)[O-])cc4[N+](=O)[O-])o3)o2)c([N+](=O)[O-])c1,323.15,ethanol,CCO,0.00035390000000000004,0.005864943909886006,-2.2317361369574,"5,5′-bis(2,4,6-trinitrophenyl)-2,2′-bis(1,3,4-oxadiazole)",,129048596,No,10.1016/j.molliq.2021.118226
O=[N+]([O-])c1cc([N+](=O)[O-])c(-c2nnc(-c3nnc(-c4c([N+](=O)[O-])cc([N+](=O)[O-])cc4[N+](=O)[O-])o3)o2)c([N+](=O)[O-])c1,328.15,ethanol,CCO,0.00043550000000000007,0.00717433065512738,-2.1442186111576853,"5,5′-bis(2,4,6-trinitrophenyl)-2,2′-bis(1,3,4-oxadiazole)",,129048596,No,10.1016/j.molliq.2021.118226
O=[N+]([O-])c1cc([N+](=O)[O-])c(-c2nnc(-c3nnc(-c4c([N+](=O)[O-])cc([N+](=O)[O-])cc4[N+](=O)[O-])o3)o2)c([N+](=O)[O-])c1,333.15,ethanol,CCO,0.0005612,0.009195055422367137,-2.0364456487471996,"5,5′-bis(2,4,6-trinitrophenyl)-2,2′-bis(1,3,4-oxadiazole)",,129048596,No,10.1016/j.molliq.2021.118226
OCc1ccccc1O[C@@H]1OC(CO)[C@@H](O)[C@@H](O)C1O,283.15,ethanol,CCO,0.00029553,0.0051180709233215405,-2.2908937002007352,D(−)-salicin,,,No,10.1021/acs.jced.0c00332
OCc1ccccc1O[C@@H]1OC(CO)[C@@H](O)[C@@H](O)C1O,293.15,ethanol,CCO,0.00053627,0.009195753401944827,-2.036412683510911,D(−)-salicin,,,No,10.1021/acs.jced.0c00332
OCc1ccccc1O[C@@H]1OC(CO)[C@@H](O)[C@@H](O)C1O,303.15,ethanol,CCO,0.0007282,0.012352466380785465,-1.908246319438888,D(−)-salicin,,,No,10.1021/acs.jced.0c00332
OCc1ccccc1O[C@@H]1OC(CO)[C@@H](O)[C@@H](O)C1O,313.15,ethanol,CCO,0.00112336,0.01884991358068271,-1.7246906365201864,D(−)-salicin,,,No,10.1021/acs.jced.0c00332
OCc1ccccc1O[C@@H]1OC(CO)[C@@H](O)[C@@H](O)C1O,323.15,ethanol,CCO,0.00153807,0.025519617886551837,-1.5931258327331794,D(−)-salicin,,,No,10.1021/acs.jced.0c00332
OC[C@H]1O[C@@H](Oc2ccc(O)cc2)[C@H](O)[C@@H](O)[C@@H]1O,283.15,ethanol,CCO,0.002284,0.039633782583928405,-1.4019344773268247,β-Arbutin,497-76-7,440936,No,10.1021/acs.jced.0c00353
OC[C@H]1O[C@@H](Oc2ccc(O)cc2)[C@H](O)[C@@H](O)[C@@H]1O,293.15,ethanol,CCO,0.002741,0.04710553316279375,-1.3269280762908482,β-Arbutin,497-76-7,440936,No,10.1021/acs.jced.0c00353
OC[C@H]1O[C@@H](Oc2ccc(O)cc2)[C@H](O)[C@@H](O)[C@@H]1O,303.15,ethanol,CCO,0.003511,0.059723459715436154,-1.223855042008601,β-Arbutin,497-76-7,440936,No,10.1021/acs.jced.0c00353
OC[C@H]1O[C@@H](Oc2ccc(O)cc2)[C@H](O)[C@@H](O)[C@@H]1O,313.15,ethanol,CCO,0.004398,0.07404090682191918,-1.1305282708302107,β-Arbutin,497-76-7,440936,No,10.1021/acs.jced.0c00353
OC[C@H]1O[C@@H](Oc2ccc(O)cc2)[C@H](O)[C@@H](O)[C@@H]1O,323.15,ethanol,CCO,0.005824,0.09704824092894868,-1.0130123321125524,β-Arbutin,497-76-7,440936,No,10.1021/acs.jced.0c00353
Nc1ccc(Cc2ccc(N)c(Cl)c2)cc1Cl,283.15,ethanol,CCO,0.0223,0.39488951976111947,-0.40352439214421576,"4,4′-methylene-bis-(2-chloroaniline)",101-14-4,7543,No,10.1021/acs.jced.0c00655
Nc1ccc(Cc2ccc(N)c(Cl)c2)cc1Cl,288.15,ethanol,CCO,0.02418,0.4266927369856217,-0.36988474948639194,"4,4′-methylene-bis-(2-chloroaniline)",101-14-4,7543,No,10.1021/acs.jced.0c00655
Nc1ccc(Cc2ccc(N)c(Cl)c2)cc1Cl,293.15,ethanol,CCO,0.0272,0.4791993217267919,-0.3194838053318501,"4,4′-methylene-bis-(2-chloroaniline)",101-14-4,7543,No,10.1021/acs.jced.0c00655
Nc1ccc(Cc2ccc(N)c(Cl)c2)cc1Cl,298.15,ethanol,CCO,0.03135,0.5517843294576201,-0.25823063754063585,"4,4′-methylene-bis-(2-chloroaniline)",101-14-4,7543,No,10.1021/acs.jced.0c00655
Nc1ccc(Cc2ccc(N)c(Cl)c2)cc1Cl,303.15,ethanol,CCO,0.03624,0.6373910033351523,-0.19559407081125615,"4,4′-methylene-bis-(2-chloroaniline)",101-14-4,7543,No,10.1021/acs.jced.0c00655
Nc1ccc(Cc2ccc(N)c(Cl)c2)cc1Cl,308.15,ethanol,CCO,0.04244,0.74694069354253,-0.12671387942919857,"4,4′-methylene-bis-(2-chloroaniline)",101-14-4,7543,No,10.1021/acs.jced.0c00655
Nc1ccc(Cc2ccc(N)c(Cl)c2)cc1Cl,313.15,ethanol,CCO,0.04898,0.8632396799021983,-0.06386860497192717,"4,4′-methylene-bis-(2-chloroaniline)",101-14-4,7543,No,10.1021/acs.jced.0c00655
Nc1ccc(Cc2ccc(N)c(Cl)c2)cc1Cl,318.15,ethanol,CCO,0.05702,1.0075792154208978,0.0032792001905912788,"4,4′-methylene-bis-(2-chloroaniline)",101-14-4,7543,No,10.1021/acs.jced.0c00655
Nc1ccc(Cc2ccc(N)c(Cl)c2)cc1Cl,323.15,ethanol,CCO,0.06766,1.202229146759635,0.07998725276537988,"4,4′-methylene-bis-(2-chloroaniline)",101-14-4,7543,No,10.1021/acs.jced.0c00655
Nc1ccc(Cc2ccc(N)c(Cl)c2)cc1Cl,328.15,ethanol,CCO,0.08025,1.4367436873100716,0.15737929762934771,"4,4′-methylene-bis-(2-chloroaniline)",101-14-4,7543,No,10.1021/acs.jced.0c00655
Nc1cccc(S(=O)(=O)c2cccc(N)c2)c1,283.15,ethanol,CCO,0.002373,0.04118185486785116,-1.3852940962626548,"3,3′-diaminodiphenyl sulfone",599-61-1,11741,No,10.1021/acs.jced.1c00062
Nc1cccc(S(=O)(=O)c2cccc(N)c2)c1,288.15,ethanol,CCO,0.002558,0.04416127033167474,-1.3549584422964878,"3,3′-diaminodiphenyl sulfone",599-61-1,11741,No,10.1021/acs.jced.1c00062
Nc1cccc(S(=O)(=O)c2cccc(N)c2)c1,293.15,ethanol,CCO,0.002967,0.05100102047708152,-1.2924211340367395,"3,3′-diaminodiphenyl sulfone",599-61-1,11741,No,10.1021/acs.jced.1c00062
Nc1cccc(S(=O)(=O)c2cccc(N)c2)c1,298.15,ethanol,CCO,0.003487,0.059657861123538554,-1.2243323211867647,"3,3′-diaminodiphenyl sulfone",599-61-1,11741,No,10.1021/acs.jced.1c00062
Nc1cccc(S(=O)(=O)c2cccc(N)c2)c1,303.15,ethanol,CCO,0.004151,0.07065548458252478,-1.1508541207018192,"3,3′-diaminodiphenyl sulfone",599-61-1,11741,No,10.1021/acs.jced.1c00062
Nc1cccc(S(=O)(=O)c2cccc(N)c2)c1,308.15,ethanol,CCO,0.004919,0.08330961549275896,-1.0793048699684236,"3,3′-diaminodiphenyl sulfone",599-61-1,11741,No,10.1021/acs.jced.1c00062
Nc1cccc(S(=O)(=O)c2cccc(N)c2)c1,313.15,ethanol,CCO,0.005741,0.0967810390629607,-1.0142097195193172,"3,3′-diaminodiphenyl sulfone",599-61-1,11741,No,10.1021/acs.jced.1c00062
Nc1cccc(S(=O)(=O)c2cccc(N)c2)c1,318.15,ethanol,CCO,0.006608,0.1108418702421626,-0.9552961549486425,"3,3′-diaminodiphenyl sulfone",599-61-1,11741,No,10.1021/acs.jced.1c00062
Nc1cccc(S(=O)(=O)c2cccc(N)c2)c1,323.15,ethanol,CCO,0.007376,0.12310217123013599,-0.9097342870772034,"3,3′-diaminodiphenyl sulfone",599-61-1,11741,No,10.1021/acs.jced.1c00062
Nc1cccc(S(=O)(=O)c2cccc(N)c2)c1,328.15,ethanol,CCO,0.008372,0.13902230713677693,-0.8569155084572465,"3,3′-diaminodiphenyl sulfone",599-61-1,11741,No,10.1021/acs.jced.1c00062